
     Program PWSCF v.5.3.0 starts on 15Dec2019 at 21:17:13 

     This program is part of the open-source Quantum ESPRESSO suite
     for quantum simulation of materials; please cite
         "P. Giannozzi et al., J. Phys.:Condens. Matter 21 395502 (2009);
          URL http://www.quantum-espresso.org", 
     in publications or presentations arising from this work. More details at
     http://www.quantum-espresso.org/quote

     Parallel version (MPI & OpenMP), running on     256 processor cores
     Number of MPI processes:               128
     Threads/MPI process:                     2
     K-points division:     npool     =       8
     R & G space division:  proc/nbgrp/npool/nimage =      16
     Reading input from K_f4axFeO0_1_5_9ang0_rlx.in

     Current dimensions of program PWSCF are:
     Max number of different atomic species (ntypx) = 10
     Max number of k-points (npk) =  40000
     Max angular momentum in pseudopotentials (lmaxx) =  3

     IMPORTANT: XC functional enforced from input :
     Exchange-correlation      = RVV10 ( 1  4 13  4 3 0)
     Any further DFT definition will be discarded
     Please, verify this is what you really want


     Subspace diagonalization in iterative solution of the eigenvalue problem:
     one sub-group per k-point group (pool) will be used
     ELPA distributed-memory algorithm (size of sub-group:  2*  2 procs)


     Parallelization info
     --------------------
     sticks:   dense  smooth     PW     G-vecs:    dense   smooth      PW
     Min         289     128     35                12952     3834     554
     Max         291     129     38                12954     3856     555
     Sum        4639    2053    571               207247    61527    8873

     Generating pointlists ...
     new r_m :   0.1074 (alat units)  1.4661 (a.u.) for type    1
     new r_m :   0.1014 (alat units)  1.3839 (a.u.) for type    2
     new r_m :   0.0671 (alat units)  0.9157 (a.u.) for type    3
     new r_m :   0.0671 (alat units)  0.9157 (a.u.) for type    4
     new r_m :   0.0868 (alat units)  1.1848 (a.u.) for type    5
     new r_m :   0.0547 (alat units)  0.7461 (a.u.) for type    6
     new r_m :   0.0547 (alat units)  0.7461 (a.u.) for type    7


     bravais-lattice index     =           14
     lattice parameter (alat)  =      13.6443  a.u.
     unit-cell volume          =    1796.1348 (a.u.)^3
     number of atoms/cell      =           28
     number of atomic types    =            7
     number of electrons       =       138.00
     number of Kohn-Sham states=          256
     kinetic-energy cutoff     =      40.0000  Ry
     charge density cutoff     =     360.0000  Ry
     convergence threshold     =      1.0E-08
     mixing beta               =       0.2000
     number of iterations used =            8  plain     mixing
     Exchange-correlation      = RVV10 ( 1  4 13  4 3 0)
     nstep                     =           50


     celldm(1)=  13.644295  celldm(2)=   1.000000  celldm(3)=   1.000001
     celldm(4)=   0.500000  celldm(5)=   0.500000  celldm(6)=   0.500000

     crystal axes: (cart. coord. in units of alat)
               a(1) = (   1.000000   0.000000   0.000000 )  
               a(2) = (   0.500000   0.866025   0.000000 )  
               a(3) = (   0.500001   0.288676   0.816498 )  

     reciprocal axes: (cart. coord. in units 2 pi/alat)
               b(1) = (  1.000000 -0.577350 -0.408248 )  
               b(2) = (  0.000000  1.154701 -0.408248 )  
               b(3) = (  0.000000  0.000000  1.224743 )  


     PseudoPot. # 1 for Fe read from file:
     /dev/shm/pseudo/Fe.upf
     MD5 check sum: a3f38e9a1a818e424be8f97771a26c64
     Pseudo is Ultrasoft + core correction, Zval = 16.0
     Generated by new atomic code, or converted to UPF format
     Using radial grid of  861 points,  6 beta functions with: 
                l(1) =   0
                l(2) =   0
                l(3) =   1
                l(4) =   1
                l(5) =   2
                l(6) =   2
     Q(r) pseudized with  8 coefficients,  rinner =    1.000   1.000   1.000
                                                       1.000   1.000

     PseudoPot. # 2 for Ni read from file:
     /dev/shm/pseudo/Ni.upf
     MD5 check sum: de937c0c8ae4b350e69c02b76d8a83cb
     Pseudo is Ultrasoft + core correction, Zval = 18.0
     Generated by new atomic code, or converted to UPF format
     Using radial grid of  865 points,  6 beta functions with: 
                l(1) =   0
                l(2) =   0
                l(3) =   1
                l(4) =   1
                l(5) =   2
                l(6) =   2
     Q(r) pseudized with 10 coefficients,  rinner =    0.980   0.980   0.980
                                                       0.980   0.980

     PseudoPot. # 3 for C  read from file:
     /dev/shm/pseudo/C.upf
     MD5 check sum: 8d40f609cfc95820001c5638b62dae31
     Pseudo is Ultrasoft + core correction, Zval =  4.0
     Generated by new atomic code, or converted to UPF format
     Using radial grid of  721 points,  4 beta functions with: 
                l(1) =   0
                l(2) =   0
                l(3) =   1
                l(4) =   1
     Q(r) pseudized with  8 coefficients,  rinner =    1.100   1.100   1.100


     PseudoPot. # 4 for N  read from file:
     /dev/shm/pseudo/N.upf
     MD5 check sum: 63fe17a113022154a41c914ff754efac
     Pseudo is Ultrasoft + core correction, Zval =  5.0
     Generated by new atomic code, or converted to UPF format
     Using radial grid of  729 points,  4 beta functions with: 
                l(1) =   0
                l(2) =   0
                l(3) =   1
                l(4) =   1
     Q(r) pseudized with  8 coefficients,  rinner =    0.900   0.900   0.900


     PseudoPot. # 5 for K  read from file:
     /dev/shm/pseudo/K.upf
     MD5 check sum: 708b83fe24d88545072b0e8b1e7998e9
     Pseudo is Ultrasoft + core correction, Zval =  9.0
     Generated by new atomic code, or converted to UPF format
     Using radial grid of  841 points,  6 beta functions with: 
                l(1) =   0
                l(2) =   0
                l(3) =   1
                l(4) =   1
                l(5) =   2
                l(6) =   2
     Q(r) pseudized with  6 coefficients,  rinner =    1.500   1.500   1.500
                                                       1.500   1.500

     PseudoPot. # 6 for O  read from file:
     /dev/shm/pseudo/O.upf
     MD5 check sum: 501638753501ef6325af9037351f7734
     Pseudo is Ultrasoft + core correction, Zval =  6.0
     Generated by new atomic code, or converted to UPF format
     Using radial grid of  737 points,  5 beta functions with: 
                l(1) =   0
                l(2) =   0
                l(3) =   1
                l(4) =   1
                l(5) =   2
     Q(r) pseudized with  8 coefficients,  rinner =    0.900   0.900   0.900
                                                       0.900   0.900

     PseudoPot. # 7 for H  read from file:
     /dev/shm/pseudo/H.upf
     MD5 check sum: ff26bc21b6066a3eda418b480c2a5ec0
     Pseudo is Ultrasoft, Zval =  1.0
     Generated by new atomic code, or converted to UPF format
     Using radial grid of  615 points,  2 beta functions with: 
                l(1) =   0
                l(2) =   0
     Q(r) pseudized with  8 coefficients,  rinner =    0.700

     vdW kernel table read from file rVV10_kernel_table
     MD5 check sum: b40d87f4363f44cbecbc2ba61283f335

     atomic species   valence    mass     pseudopotential
        Fe            16.00    55.84500     Fe( 1.00)
        Ni            18.00    58.69340     Ni( 1.00)
        C              4.00    12.01100     C ( 1.00)
        N              5.00    14.00700     N ( 1.00)
        K              9.00    39.09830     K ( 1.00)
        O              6.00    15.99900     O ( 1.00)
        H              1.00     1.00800     H ( 1.00)

     Starting magnetic structure 
     atomic species   magnetization
        Fe           0.500
        Ni           0.500
        C            0.000
        N            0.000
        K            0.000
        O            0.000
        H            0.000


     Simplified LDA+U calculation (l_max = 2) with parameters (eV):
     atomic species    L          U    alpha       J0     beta
        Fe             2     1.0000   0.0000   0.0000   0.0000
        Ni             2     3.0000   0.0000   0.0000   0.0000



     No symmetry found



   Cartesian axes

     site n.     atom                  positions (alat units)
         1           Fe  tau(   1) = (   0.0000000   0.0000000   0.0000000  )
         2           Ni  tau(   2) = (   1.0000004   0.5773505   0.4082489  )
         3           C   tau(   3) = (   1.3158101   0.7596834   0.1503908  )
         4           N   tau(   4) = (   1.2007602   0.6932592   0.2443288  )
         5           N   tau(   5) = (   0.7992405   0.4614418   0.5721690  )
         6           N   tau(   6) = (   1.2007605   0.4614418   0.5721690  )
         7           N   tau(   7) = (   0.7992352   0.6932505   0.2443288  )
         8           N   tau(   8) = (   1.0000006   0.8091682   0.5721690  )
         9           N   tau(   9) = (   0.9999902   0.3455328   0.2443288  )
        10           C   tau(  10) = (   0.6841906   0.3950176   0.6661070  )
        11           C   tau(  11) = (   1.3158055   0.3950089   0.6661070  )
        12           C   tau(  12) = (   0.6841902   0.7596834   0.1503908  )
        13           C   tau(  13) = (   0.9999906   0.9420166   0.6661070  )
        14           C   tau(  14) = (   1.0000001   0.2126843   0.1503908  )
        15           K   tau(  15) = (   0.5000001   0.2886752   0.2041244  )
        16           K   tau(  16) = (   1.5000006   0.8660257   0.6123733  )
        17           O   tau(  17) = (   0.5165882   0.5602877   0.3961882  )
        18           O   tau(  18) = (   1.7007469   0.9628183   0.4552137  )
        19           O   tau(  19) = (   1.2007605   0.4614355   0.3262848  )
        20           O   tau(  20) = (   0.7992402   0.6932595   0.4902088  )
        21           H   tau(  21) = (   0.5797665   0.6757129   0.3800404  )
        22           H   tau(  22) = (   0.4480321   0.5439785   0.2838970  )
        23           H   tau(  23) = (   0.3021033   0.1809558   0.4404241  )
        24           H   tau(  24) = (   1.6952302   0.9401083   0.5857092  )
        25           H   tau(  25) = (   1.3141733   0.5109739   0.3738106  )
        26           H   tau(  26) = (   1.1683385   0.3651390   0.4114376  )
        27           H   tau(  27) = (   0.8687849   0.7980816   0.4483626  )
        28           H   tau(  28) = (   0.7840325   0.7133293   0.6203670  )

     number of k points=     8  gaussian smearing, width (Ry)=  0.0200
                       cart. coord. in units 2pi/alat
        k(    1) = (   0.0000000   0.0000000   0.0000000), wk =   0.1250000
        k(    2) = (   0.0000000   0.0000000  -0.6123716), wk =   0.1250000
        k(    3) = (   0.0000000  -0.5773503   0.2041241), wk =   0.1250000
        k(    4) = (   0.0000000  -0.5773503  -0.4082474), wk =   0.1250000
        k(    5) = (  -0.5000000  -0.2886751   0.4082483), wk =   0.1250000
        k(    6) = (  -0.5000000  -0.2886751  -0.2041233), wk =   0.1250000
        k(    7) = (   0.5000000  -0.2886751  -0.2041241), wk =   0.1250000
        k(    8) = (   0.5000000  -0.2886751   0.4082474), wk =   0.1250000

     Dense  grid:   207247 G-vectors     FFT dimensions: (  90,  90,  90)

     Smooth grid:    61527 G-vectors     FFT dimensions: (  60,  60,  60)

     Largest allocated arrays     est. size (Mb)     dimensions
        Kohn-Sham Wavefunctions         1.93 Mb     (     495,  256)
        Atomic Hubbard wavefuncts       0.08 Mb     (     495,   10)
        NL pseudopotentials             1.78 Mb     (     495,  236)
        Each V/rho on FFT grid          1.48 Mb     (   48600,   2)
        Each G-vector array             0.10 Mb     (   12954)
        G-vector shells                 0.09 Mb     (   11851)
     Largest temporary arrays     est. size (Mb)     dimensions
        Each subspace H/S matrix        0.25 Mb     (     128,  128)
        Each <psi_i|beta_j> matrix      0.92 Mb     (     236,  256)
        Arrays for rho mixing           5.93 Mb     (   48600,    8)

     Check: negative/imaginary core charge=   -0.000003    0.000000

     Initial potential from superposition of free atoms

     starting charge  133.99228, renormalised to  138.00000


---------------------------------------------------------------------------------
Carrying out rVV10 run using the following parameters:

Nqs =      20    Nr_points =    1024   r_max =   100.000
b_value =  6.30000
beta =  0.00901
q_mesh =       0.00010000
     0.00030000
     0.00058939
     0.00100810
     0.00161396
     0.00249058
     0.00375900
     0.00559430
     0.00824984
     0.01209221
     0.01765183
     0.02569619
     0.03733578
     0.05417739
     0.07854596
     0.11380545
     0.16482331
     0.23864234
     0.34545298
     0.50000000

Gradients computed in Reciprocal space

---------------------------------------------------------------------------------


     Number of +U iterations with fixed ns =  0
     Starting occupations:
 --- enter write_ns ---
 LDA+U parameters:
U( 1)     =  1.00000000
alpha( 1) =  0.00000000
U( 2)     =  3.00000000
alpha( 2) =  0.00000000
atom    1   Tr[ns(na)] (up, down, total) =   5.00000  1.00000  6.00000
   spin  1
    eigenvalues: 
  1.000  1.000  1.000  1.000  1.000
    eigenvectors:
  1.000  0.000  0.000  0.000  0.000
  0.000  1.000  0.000  0.000  0.000
  0.000  0.000  1.000  0.000  0.000
  0.000  0.000  0.000  1.000  0.000
  0.000  0.000  0.000  0.000  1.000
    occupations:
  1.000  0.000  0.000  0.000  0.000
  0.000  1.000  0.000  0.000  0.000
  0.000  0.000  1.000  0.000  0.000
  0.000  0.000  0.000  1.000  0.000
  0.000  0.000  0.000  0.000  1.000
   spin  2
    eigenvalues: 
  0.200  0.200  0.200  0.200  0.200
    eigenvectors:
  1.000  0.000  0.000  0.000  0.000
  0.000  1.000  0.000  0.000  0.000
  0.000  0.000  1.000  0.000  0.000
  0.000  0.000  0.000  1.000  0.000
  0.000  0.000  0.000  0.000  1.000
    occupations:
  0.200  0.000  0.000  0.000  0.000
  0.000  0.200  0.000  0.000  0.000
  0.000  0.000  0.200  0.000  0.000
  0.000  0.000  0.000  0.200  0.000
  0.000  0.000  0.000  0.000  0.200
atomic mag. moment =     4.000000
atom    2   Tr[ns(na)] (up, down, total) =   5.00000  3.00000  8.00000
   spin  1
    eigenvalues: 
  1.000  1.000  1.000  1.000  1.000
    eigenvectors:
  1.000  0.000  0.000  0.000  0.000
  0.000  1.000  0.000  0.000  0.000
  0.000  0.000  1.000  0.000  0.000
  0.000  0.000  0.000  1.000  0.000
  0.000  0.000  0.000  0.000  1.000
    occupations:
  1.000  0.000  0.000  0.000  0.000
  0.000  1.000  0.000  0.000  0.000
  0.000  0.000  1.000  0.000  0.000
  0.000  0.000  0.000  1.000  0.000
  0.000  0.000  0.000  0.000  1.000
   spin  2
    eigenvalues: 
  0.600  0.600  0.600  0.600  0.600
    eigenvectors:
  1.000  0.000  0.000  0.000  0.000
  0.000  1.000  0.000  0.000  0.000
  0.000  0.000  1.000  0.000  0.000
  0.000  0.000  0.000  1.000  0.000
  0.000  0.000  0.000  0.000  1.000
    occupations:
  0.600  0.000  0.000  0.000  0.000
  0.000  0.600  0.000  0.000  0.000
  0.000  0.000  0.600  0.000  0.000
  0.000  0.000  0.000  0.600  0.000
  0.000  0.000  0.000  0.000  0.600
atomic mag. moment =     2.000000
N of occupied +U levels =   14.000000
 --- exit write_ns ---
 Atomic wfc used for LDA+U Projector are NOT orthogonalized
     Starting wfc are  114 randomized atomic wfcs +  142 random wfc

     total cpu time spent up to now is        8.4 secs

     per-process dynamical memory:    67.5 Mb

     Self-consistent Calculation

     iteration #  1     ecut=    40.00 Ry     beta=0.20
     CG style diagonalization
     c_bands:  2 eigenvalues not converged
     c_bands:  4 eigenvalues not converged
     ethr =  1.00E-06,  avg # of iterations = 43.6
 --- enter write_ns ---
 LDA+U parameters:
U( 1)     =  1.00000000
alpha( 1) =  0.00000000
U( 2)     =  3.00000000
alpha( 2) =  0.00000000
atom    1   Tr[ns(na)] (up, down, total) =   4.85926  1.94722  6.80648
   spin  1
    eigenvalues: 
  0.957  0.959  0.966  0.988  0.989
    eigenvectors:
  0.622  0.002  0.374  0.002  0.000
  0.032  0.310  0.053  0.472  0.133
  0.095  0.091  0.169  0.127  0.519
  0.213  0.143  0.290  0.080  0.273
  0.038  0.454  0.114  0.319  0.075
    occupations:
  0.960 -0.002 -0.002  0.004  0.001
 -0.002  0.977  0.001 -0.001  0.014
 -0.002  0.001  0.979  0.013 -0.001
  0.004 -0.001  0.013  0.971  0.001
  0.001  0.014 -0.001  0.001  0.971
   spin  2
    eigenvalues: 
  0.347  0.348  0.394  0.410  0.449
    eigenvectors:
  0.000  0.001  0.392  0.500  0.106
  0.123  0.519  0.026  0.143  0.188
  0.537  0.117  0.182  0.038  0.126
  0.277  0.068  0.330  0.092  0.233
  0.062  0.295  0.069  0.227  0.347
    occupations:
  0.408 -0.002  0.008 -0.012  0.006
 -0.002  0.377 -0.008  0.010 -0.039
  0.008 -0.008  0.371 -0.033  0.010
 -0.012  0.010 -0.033  0.392 -0.013
  0.006 -0.039  0.010 -0.013  0.400
atomic mag. moment =     2.912043
atom    2   Tr[ns(na)] (up, down, total) =   4.91622  0.51631  5.43253
   spin  1
    eigenvalues: 
  0.974  0.975  0.985  0.991  0.992
    eigenvectors:
  0.599  0.323  0.059  0.016  0.004
  0.001  0.102  0.255  0.129  0.513
  0.119  0.063  0.059  0.555  0.204
  0.246  0.336  0.178  0.212  0.028
  0.035  0.177  0.449  0.088  0.252
    occupations:
  0.975 -0.003  0.002 -0.001  0.000
 -0.003  0.988 -0.000  0.001  0.004
  0.002 -0.000  0.988  0.006  0.002
 -0.001  0.001  0.006  0.980 -0.004
  0.000  0.004  0.002 -0.004  0.985
   spin  2
    eigenvalues: 
  0.052  0.085  0.109  0.111  0.160
    eigenvectors:
  0.519  0.385  0.000  0.000  0.096
  0.104  0.021  0.021  0.660  0.193
  0.049  0.172  0.659  0.023  0.097
  0.140  0.393  0.296  0.022  0.150
  0.188  0.029  0.025  0.294  0.464
    occupations:
  0.075 -0.018  0.002 -0.000  0.026
 -0.018  0.113 -0.012  0.018 -0.006
  0.002 -0.012  0.107  0.005  0.018
 -0.000  0.018  0.005  0.099 -0.025
  0.026 -0.006  0.018 -0.025  0.122
atomic mag. moment =     4.399906
N of occupied +U levels =   12.239011
 --- exit write_ns ---

     total cpu time spent up to now is       90.0 secs

     total energy              =   -1032.94735349 Ry
     Harris-Foulkes estimate   =   -1036.54074871 Ry
     estimated scf accuracy    <      13.43132331 Ry

     total magnetization       =     7.36 Bohr mag/cell
     absolute magnetization    =     8.75 Bohr mag/cell

     iteration #  2     ecut=    40.00 Ry     beta=0.20
     CG style diagonalization
     ethr =  9.73E-03,  avg # of iterations =  3.0

     total cpu time spent up to now is       96.7 secs

     total energy              =   -1034.00250974 Ry
     Harris-Foulkes estimate   =   -1035.49789200 Ry
     estimated scf accuracy    <      14.18616305 Ry

     total magnetization       =     2.00 Bohr mag/cell
     absolute magnetization    =     4.62 Bohr mag/cell

     iteration #  3     ecut=    40.00 Ry     beta=0.20
     CG style diagonalization
     ethr =  9.73E-03,  avg # of iterations =  3.0

     total cpu time spent up to now is      103.4 secs

     total energy              =   -1034.50367069 Ry
     Harris-Foulkes estimate   =   -1034.82009259 Ry
     estimated scf accuracy    <       4.28573248 Ry

     total magnetization       =     4.77 Bohr mag/cell
     absolute magnetization    =     5.90 Bohr mag/cell

     iteration #  4     ecut=    40.00 Ry     beta=0.20
     CG style diagonalization
     ethr =  3.11E-03,  avg # of iterations =  3.0

     total cpu time spent up to now is      110.0 secs

     total energy              =   -1034.78134773 Ry
     Harris-Foulkes estimate   =   -1034.96411977 Ry
     estimated scf accuracy    <       5.59022900 Ry

     total magnetization       =     2.00 Bohr mag/cell
     absolute magnetization    =     4.69 Bohr mag/cell

     iteration #  5     ecut=    40.00 Ry     beta=0.20
     CG style diagonalization
     ethr =  3.11E-03,  avg # of iterations =  3.0

     total cpu time spent up to now is      116.7 secs

     total energy              =   -1035.27986367 Ry
     Harris-Foulkes estimate   =   -1035.31200013 Ry
     estimated scf accuracy    <       2.07805056 Ry

     total magnetization       =     3.93 Bohr mag/cell
     absolute magnetization    =     5.21 Bohr mag/cell

     iteration #  6     ecut=    40.00 Ry     beta=0.20
     CG style diagonalization
     ethr =  1.51E-03,  avg # of iterations =  3.0

     total cpu time spent up to now is      123.3 secs

     total energy              =   -1035.52873974 Ry
     Harris-Foulkes estimate   =   -1035.43405270 Ry
     estimated scf accuracy    <       0.28575521 Ry

     total magnetization       =     2.00 Bohr mag/cell
     absolute magnetization    =     3.79 Bohr mag/cell

     iteration #  7     ecut=    40.00 Ry     beta=0.20
     CG style diagonalization
     ethr =  2.07E-04,  avg # of iterations =  3.1

     total cpu time spent up to now is      130.4 secs

     total energy              =   -1035.56678575 Ry
     Harris-Foulkes estimate   =   -1035.55305370 Ry
     estimated scf accuracy    <       0.11068055 Ry

     total magnetization       =     2.00 Bohr mag/cell
     absolute magnetization    =     3.07 Bohr mag/cell

     iteration #  8     ecut=    40.00 Ry     beta=0.20
     CG style diagonalization
     ethr =  8.02E-05,  avg # of iterations =  3.5

     total cpu time spent up to now is      138.4 secs

     total energy              =   -1035.58635626 Ry
     Harris-Foulkes estimate   =   -1035.58090280 Ry
     estimated scf accuracy    <       0.02500435 Ry

     total magnetization       =     2.00 Bohr mag/cell
     absolute magnetization    =     2.69 Bohr mag/cell

     iteration #  9     ecut=    40.00 Ry     beta=0.20
     CG style diagonalization
     ethr =  1.81E-05,  avg # of iterations =  3.7

     total cpu time spent up to now is      146.8 secs

     total energy              =   -1035.59313582 Ry
     Harris-Foulkes estimate   =   -1035.58937577 Ry
     estimated scf accuracy    <       0.02186869 Ry

     total magnetization       =     2.00 Bohr mag/cell
     absolute magnetization    =     2.54 Bohr mag/cell

     iteration # 10     ecut=    40.00 Ry     beta=0.20
     CG style diagonalization
     c_bands:  1 eigenvalues not converged
     ethr =  1.58E-05,  avg # of iterations =  3.4

     total cpu time spent up to now is      154.4 secs

     total energy              =   -1035.59663196 Ry
     Harris-Foulkes estimate   =   -1035.59413869 Ry
     estimated scf accuracy    <       0.02233542 Ry

     total magnetization       =     2.00 Bohr mag/cell
     absolute magnetization    =     2.49 Bohr mag/cell

     iteration # 11     ecut=    40.00 Ry     beta=0.20
     CG style diagonalization
     ethr =  1.58E-05,  avg # of iterations =  3.1

     total cpu time spent up to now is      161.4 secs

     total energy              =   -1035.60367285 Ry
     Harris-Foulkes estimate   =   -1035.59718059 Ry
     estimated scf accuracy    <       0.02096194 Ry

     total magnetization       =     2.00 Bohr mag/cell
     absolute magnetization    =     2.45 Bohr mag/cell

     iteration # 12     ecut=    40.00 Ry     beta=0.20
     CG style diagonalization
     ethr =  1.52E-05,  avg # of iterations =  3.0

     total cpu time spent up to now is      168.2 secs

     total energy              =   -1035.61095744 Ry
     Harris-Foulkes estimate   =   -1035.60719327 Ry
     estimated scf accuracy    <       0.00911766 Ry

     total magnetization       =     2.00 Bohr mag/cell
     absolute magnetization    =     2.29 Bohr mag/cell

     iteration # 13     ecut=    40.00 Ry     beta=0.20
     CG style diagonalization
     ethr =  6.61E-06,  avg # of iterations =  3.1

     total cpu time spent up to now is      175.2 secs

     total energy              =   -1035.61306688 Ry
     Harris-Foulkes estimate   =   -1035.61265897 Ry
     estimated scf accuracy    <       0.00138965 Ry

     total magnetization       =     2.00 Bohr mag/cell
     absolute magnetization    =     2.21 Bohr mag/cell

     iteration # 14     ecut=    40.00 Ry     beta=0.20
     CG style diagonalization
     ethr =  1.01E-06,  avg # of iterations =  3.4

     total cpu time spent up to now is      182.9 secs

     total energy              =   -1035.61356645 Ry
     Harris-Foulkes estimate   =   -1035.61360739 Ry
     estimated scf accuracy    <       0.00142616 Ry

     total magnetization       =     2.00 Bohr mag/cell
     absolute magnetization    =     2.15 Bohr mag/cell

     iteration # 15     ecut=    40.00 Ry     beta=0.20
     CG style diagonalization
     ethr =  1.01E-06,  avg # of iterations =  3.2

     total cpu time spent up to now is      190.0 secs

     total energy              =   -1035.61386779 Ry
     Harris-Foulkes estimate   =   -1035.61371630 Ry
     estimated scf accuracy    <       0.00045498 Ry

     total magnetization       =     2.00 Bohr mag/cell
     absolute magnetization    =     2.16 Bohr mag/cell

     iteration # 16     ecut=    40.00 Ry     beta=0.20
     CG style diagonalization
     ethr =  3.30E-07,  avg # of iterations =  3.1

     total cpu time spent up to now is      197.0 secs

     total energy              =   -1035.61400586 Ry
     Harris-Foulkes estimate   =   -1035.61394092 Ry
     estimated scf accuracy    <       0.00010565 Ry

     total magnetization       =     2.00 Bohr mag/cell
     absolute magnetization    =     2.15 Bohr mag/cell

     iteration # 17     ecut=    40.00 Ry     beta=0.20
     CG style diagonalization
     ethr =  7.66E-08,  avg # of iterations =  3.2

     total cpu time spent up to now is      204.0 secs

     total energy              =   -1035.61406495 Ry
     Harris-Foulkes estimate   =   -1035.61403940 Ry
     estimated scf accuracy    <       0.00003352 Ry

     total magnetization       =     2.00 Bohr mag/cell
     absolute magnetization    =     2.14 Bohr mag/cell

     iteration # 18     ecut=    40.00 Ry     beta=0.20
     CG style diagonalization
     ethr =  2.43E-08,  avg # of iterations =  3.2

     total cpu time spent up to now is      211.0 secs

     total energy              =   -1035.61410514 Ry
     Harris-Foulkes estimate   =   -1035.61408086 Ry
     estimated scf accuracy    <       0.00000932 Ry

     total magnetization       =     2.00 Bohr mag/cell
     absolute magnetization    =     2.14 Bohr mag/cell

     iteration # 19     ecut=    40.00 Ry     beta=0.20
     CG style diagonalization
     ethr =  6.76E-09,  avg # of iterations =  3.1

     total cpu time spent up to now is      217.8 secs

     total energy              =   -1035.61412018 Ry
     Harris-Foulkes estimate   =   -1035.61410791 Ry
     estimated scf accuracy    <       0.00000533 Ry

     total magnetization       =     2.00 Bohr mag/cell
     absolute magnetization    =     2.14 Bohr mag/cell

     iteration # 20     ecut=    40.00 Ry     beta=0.20
     CG style diagonalization
     ethr =  3.86E-09,  avg # of iterations =  3.1

     total cpu time spent up to now is      224.6 secs

     total energy              =   -1035.61413148 Ry
     Harris-Foulkes estimate   =   -1035.61412164 Ry
     estimated scf accuracy    <       0.00000307 Ry

     total magnetization       =     2.00 Bohr mag/cell
     absolute magnetization    =     2.14 Bohr mag/cell

     iteration # 21     ecut=    40.00 Ry     beta=0.20
     CG style diagonalization
     ethr =  2.22E-09,  avg # of iterations =  3.1

     total cpu time spent up to now is      231.4 secs

     total energy              =   -1035.61413887 Ry
     Harris-Foulkes estimate   =   -1035.61413349 Ry
     estimated scf accuracy    <       0.00000175 Ry

     total magnetization       =     2.00 Bohr mag/cell
     absolute magnetization    =     2.14 Bohr mag/cell

     iteration # 22     ecut=    40.00 Ry     beta=0.20
     CG style diagonalization
     ethr =  1.27E-09,  avg # of iterations =  3.0

     total cpu time spent up to now is      238.1 secs

     total energy              =   -1035.61414300 Ry
     Harris-Foulkes estimate   =   -1035.61413915 Ry
     estimated scf accuracy    <       0.00000110 Ry

     total magnetization       =     2.00 Bohr mag/cell
     absolute magnetization    =     2.14 Bohr mag/cell

     iteration # 23     ecut=    40.00 Ry     beta=0.20
     CG style diagonalization
     ethr =  7.96E-10,  avg # of iterations =  3.0

     total cpu time spent up to now is      244.9 secs

     total energy              =   -1035.61414619 Ry
     Harris-Foulkes estimate   =   -1035.61414359 Ry
     estimated scf accuracy    <       0.00000071 Ry

     total magnetization       =     2.00 Bohr mag/cell
     absolute magnetization    =     2.14 Bohr mag/cell

     iteration # 24     ecut=    40.00 Ry     beta=0.20
     CG style diagonalization
     ethr =  5.13E-10,  avg # of iterations =  3.0

     total cpu time spent up to now is      251.6 secs

     total energy              =   -1035.61414825 Ry
     Harris-Foulkes estimate   =   -1035.61414649 Ry
     estimated scf accuracy    <       0.00000055 Ry

     total magnetization       =     2.00 Bohr mag/cell
     absolute magnetization    =     2.14 Bohr mag/cell

     iteration # 25     ecut=    40.00 Ry     beta=0.20
     CG style diagonalization
     ethr =  3.95E-10,  avg # of iterations =  3.0

     total cpu time spent up to now is      258.4 secs

     total energy              =   -1035.61414969 Ry
     Harris-Foulkes estimate   =   -1035.61414845 Ry
     estimated scf accuracy    <       0.00000045 Ry

     total magnetization       =     2.00 Bohr mag/cell
     absolute magnetization    =     2.14 Bohr mag/cell

     iteration # 26     ecut=    40.00 Ry     beta=0.20
     CG style diagonalization
     ethr =  3.28E-10,  avg # of iterations =  3.0

     total cpu time spent up to now is      265.1 secs

     total energy              =   -1035.61415070 Ry
     Harris-Foulkes estimate   =   -1035.61414998 Ry
     estimated scf accuracy    <       0.00000038 Ry

     total magnetization       =     2.00 Bohr mag/cell
     absolute magnetization    =     2.14 Bohr mag/cell

     iteration # 27     ecut=    40.00 Ry     beta=0.20
     CG style diagonalization
     ethr =  2.77E-10,  avg # of iterations =  3.1

     total cpu time spent up to now is      271.9 secs

     total energy              =   -1035.61415152 Ry
     Harris-Foulkes estimate   =   -1035.61415128 Ry
     estimated scf accuracy    <       0.00000032 Ry

     total magnetization       =     2.00 Bohr mag/cell
     absolute magnetization    =     2.14 Bohr mag/cell

     iteration # 28     ecut=    40.00 Ry     beta=0.20
     CG style diagonalization
     ethr =  2.35E-10,  avg # of iterations =  3.1

     total cpu time spent up to now is      278.7 secs

     total energy              =   -1035.61415217 Ry
     Harris-Foulkes estimate   =   -1035.61415235 Ry
     estimated scf accuracy    <       0.00000026 Ry

     total magnetization       =     2.00 Bohr mag/cell
     absolute magnetization    =     2.14 Bohr mag/cell

     iteration # 29     ecut=    40.00 Ry     beta=0.20
     CG style diagonalization
     ethr =  1.90E-10,  avg # of iterations =  3.1

     total cpu time spent up to now is      285.7 secs

     total energy              =   -1035.61415274 Ry
     Harris-Foulkes estimate   =   -1035.61415330 Ry
     estimated scf accuracy    <       0.00000021 Ry

     total magnetization       =     2.00 Bohr mag/cell
     absolute magnetization    =     2.14 Bohr mag/cell

     iteration # 30     ecut=    40.00 Ry     beta=0.20
     CG style diagonalization
     ethr =  1.53E-10,  avg # of iterations =  3.2

     total cpu time spent up to now is      292.7 secs

     total energy              =   -1035.61415181 Ry
     Harris-Foulkes estimate   =   -1035.61415408 Ry
     estimated scf accuracy    <       0.00000015 Ry

     total magnetization       =     2.00 Bohr mag/cell
     absolute magnetization    =     2.14 Bohr mag/cell

     iteration # 31     ecut=    40.00 Ry     beta=0.20
     CG style diagonalization
     ethr =  1.12E-10,  avg # of iterations =  3.3

     total cpu time spent up to now is      299.8 secs

     total energy              =   -1035.61415433 Ry
     Harris-Foulkes estimate   =   -1035.61415477 Ry
     estimated scf accuracy    <       0.00000010 Ry

     total magnetization       =     2.00 Bohr mag/cell
     absolute magnetization    =     2.14 Bohr mag/cell

     iteration # 32     ecut=    40.00 Ry     beta=0.20
     CG style diagonalization
     ethr =  7.11E-11,  avg # of iterations =  3.3

     total cpu time spent up to now is      307.0 secs

     total energy              =   -1035.61415278 Ry
     Harris-Foulkes estimate   =   -1035.61415520 Ry
     estimated scf accuracy    <       0.00000008 Ry

     total magnetization       =     2.00 Bohr mag/cell
     absolute magnetization    =     2.14 Bohr mag/cell

     iteration # 33     ecut=    40.00 Ry     beta=0.20
     CG style diagonalization
     ethr =  5.51E-11,  avg # of iterations =  3.2

     total cpu time spent up to now is      314.1 secs

     total energy              =   -1035.61415451 Ry
     Harris-Foulkes estimate   =   -1035.61415539 Ry
     estimated scf accuracy    <       0.00000003 Ry

     total magnetization       =     2.00 Bohr mag/cell
     absolute magnetization    =     2.14 Bohr mag/cell

     iteration # 34     ecut=    40.00 Ry     beta=0.20
     CG style diagonalization
     ethr =  2.47E-11,  avg # of iterations =  3.5

     total cpu time spent up to now is      321.5 secs

     total energy              =   -1035.61415580 Ry
     Harris-Foulkes estimate   =   -1035.61415557 Ry
     estimated scf accuracy    <       0.00000001 Ry

     total magnetization       =     2.00 Bohr mag/cell
     absolute magnetization    =     2.14 Bohr mag/cell

     iteration # 35     ecut=    40.00 Ry     beta=0.20
     CG style diagonalization
     ethr =  7.93E-12,  avg # of iterations =  3.3

     Magnetic moment per site:
     atom:    1    charge:   12.9791    magn:    0.0010    constr:    0.0000
     atom:    2    charge:   14.9183    magn:    1.4619    constr:    0.0000
     atom:    3    charge:    1.0607    magn:    0.0031    constr:    0.0000
     atom:    4    charge:    1.8946    magn:    0.0384    constr:    0.0000
     atom:    5    charge:    1.8932    magn:    0.0456    constr:    0.0000
     atom:    6    charge:    1.9207    magn:    0.0140    constr:    0.0000
     atom:    7    charge:    1.9027    magn:    0.0086    constr:    0.0000
     atom:    8    charge:    1.9246    magn:    0.0141    constr:    0.0000
     atom:    9    charge:    1.8970    magn:    0.0154    constr:    0.0000
     atom:   10    charge:    1.0574    magn:    0.0044    constr:    0.0000
     atom:   11    charge:    1.0626    magn:   -0.0004    constr:    0.0000
     atom:   12    charge:    1.0636    magn:   -0.0005    constr:    0.0000
     atom:   13    charge:    1.0623    magn:   -0.0003    constr:    0.0000
     atom:   14    charge:    1.0598    magn:    0.0001    constr:    0.0000
     atom:   15    charge:    4.0072    magn:    0.0018    constr:    0.0000
     atom:   16    charge:    4.0366    magn:    0.0015    constr:    0.0000
     atom:   17    charge:    1.9448    magn:    0.0017    constr:    0.0000
     atom:   18    charge:    1.9568    magn:    0.0030    constr:    0.0000
     atom:   19    charge:    1.9904    magn:    0.0351    constr:    0.0000
     atom:   20    charge:    1.9953    magn:    0.0383    constr:    0.0000
     atom:   21    charge:    0.3979    magn:    0.0003    constr:    0.0000
     atom:   22    charge:    0.4223    magn:    0.0002    constr:    0.0000
     atom:   23    charge:    0.4052    magn:    0.0001    constr:    0.0000
     atom:   24    charge:    0.4327    magn:    0.0000    constr:    0.0000
     atom:   25    charge:    0.4289    magn:    0.0003    constr:    0.0000
     atom:   26    charge:    0.4200    magn:    0.0002    constr:    0.0000
     atom:   27    charge:    0.4276    magn:   -0.0001    constr:    0.0000
     atom:   28    charge:    0.4225    magn:    0.0016    constr:    0.0000

     total cpu time spent up to now is      328.6 secs

     End of self-consistent calculation
 --- enter write_ns ---
 LDA+U parameters:
U( 1)     =  1.00000000
alpha( 1) =  0.00000000
U( 2)     =  3.00000000
alpha( 2) =  0.00000000
atom    1   Tr[ns(na)] (up, down, total) =   3.63486  3.63223  7.26709
   spin  1
    eigenvalues: 
  0.543  0.546  0.833  0.844  0.869
    eigenvectors:
  0.000  0.000  0.248  0.706  0.046
  0.584  0.081  0.049  0.070  0.217
  0.074  0.607  0.187  0.027  0.106
  0.041  0.278  0.400  0.070  0.211
  0.300  0.035  0.117  0.127  0.420
    occupations:
  0.843  0.003  0.002 -0.008  0.004
  0.003  0.649 -0.008  0.009 -0.149
  0.002 -0.008  0.641 -0.140  0.009
 -0.008  0.009 -0.140  0.750 -0.006
  0.004 -0.149  0.009 -0.006  0.753
   spin  2
    eigenvalues: 
  0.537  0.543  0.835  0.848  0.870
    eigenvectors:
  0.000  0.000  0.257  0.697  0.046
  0.599  0.071  0.046  0.070  0.214
  0.078  0.599  0.189  0.030  0.104
  0.033  0.289  0.399  0.074  0.204
  0.289  0.041  0.110  0.129  0.431
    occupations:
  0.845  0.003  0.003 -0.008  0.004
  0.003  0.644 -0.009  0.006 -0.151
  0.003 -0.009  0.641 -0.142  0.008
 -0.008  0.006 -0.142  0.748 -0.007
  0.004 -0.151  0.008 -0.007  0.754
atomic mag. moment =     0.002627
atom    2   Tr[ns(na)] (up, down, total) =   4.93715  3.55893  8.49608
   spin  1
    eigenvalues: 
  0.978  0.984  0.988  0.992  0.995
    eigenvectors:
  0.634  0.251  0.094  0.012  0.008
  0.023  0.008  0.330  0.108  0.531
  0.029  0.164  0.109  0.466  0.232
  0.101  0.545  0.063  0.256  0.035
  0.213  0.032  0.404  0.158  0.194
    occupations:
  0.981  0.000  0.001 -0.001 -0.004
  0.000  0.992  0.001  0.001  0.004
  0.001  0.001  0.991  0.004  0.001
 -0.001  0.001  0.004  0.986 -0.002
 -0.004  0.004  0.001 -0.002  0.988
   spin  2
    eigenvalues: 
  0.254  0.375  0.968  0.975  0.988
    eigenvectors:
  0.064  0.076  0.357  0.499  0.005
  0.687  0.042  0.031  0.072  0.168
  0.207  0.158  0.089  0.035  0.511
  0.024  0.102  0.455  0.193  0.227
  0.019  0.622  0.068  0.201  0.089
    occupations:
  0.881  0.184  0.019  0.079 -0.106
  0.184  0.456 -0.226 -0.135  0.016
  0.019 -0.226  0.737  0.031 -0.235
  0.079 -0.135  0.031  0.896  0.133
 -0.106  0.016 -0.235  0.133  0.589
atomic mag. moment =     1.378216
N of occupied +U levels =   15.763165
 --- exit write_ns ---

 ------ SPIN UP ------------


          k = 0.0000 0.0000 0.0000 (  7727 PWs)   bands (ev):

   -98.0556 -80.2164 -59.5751 -58.1189 -57.9815 -46.4469 -46.4316 -46.2886
   -25.4358 -25.1697 -19.0801 -18.3854 -17.4139 -16.6188 -12.6267 -12.4382
   -12.1195 -11.9812 -11.6674 -11.3621  -9.9388  -9.0284  -8.7643  -8.6553
    -8.6379  -8.5269  -6.6272  -6.3803  -4.9870  -4.3778  -4.1139  -3.6810
    -3.3040  -2.3764  -2.2163  -2.0528  -1.5080  -0.9092  -0.4551  -0.3609
    -0.1925   0.1844   0.4586   0.6941   0.7297   0.7945   1.1151   1.2478
     1.2665   1.5240   1.9168   2.0057   2.1702   2.2080   2.3220   2.4116
     2.5518   2.7469   2.9167   3.2208   3.5951   4.0381   4.3294   4.6809
     4.7036   5.0644   5.1215   5.3233   5.8576   5.9359   8.2608   8.8655
     9.1030   9.4409   9.7147   9.8046   9.9065  10.0851  10.1909  10.6083
    10.7284  10.9417  11.0897  11.3336  11.5423  11.8079  11.9873  12.0402
    12.2174  12.4167  12.4719  12.5813  12.6657  12.7774  12.8614  12.9698
    13.4161  13.9214  14.1044  14.9767  15.1705  15.7380  16.2510  16.5748
    16.6194  16.7696  16.9930  17.3996  17.5250  18.2352  18.3540  18.7093
    18.8539  18.9857  19.1354  19.4495  19.6517  19.7872  19.9906  20.1370
    20.2965  20.5562  20.6218  20.8037  21.0284  21.2528  21.6732  21.7589
    22.0070  22.0903  22.2432  22.5152  22.6238  23.1203  23.2750  23.5790
    23.8836  23.9484  24.2109  24.2892  24.5128  24.8270  24.8733  25.0239
    25.2800  25.3210  25.5073  25.9616  26.1981  26.5574  26.8128  26.9939
    27.0981  27.2010  27.4862  27.6325  27.9567  28.0193  28.1184  28.2507
    28.3186  29.1982  29.3023  29.5066  29.5433  29.8304  30.0816  30.2554
    30.5625  30.6944  30.8596  30.9935  31.2310  31.5021  31.6673  31.6912
    31.8873  32.1943  32.2839  32.5316  32.8610  32.9732  33.1992  33.3337
    33.4118  33.4458  33.7561  33.9018  33.9461  33.9848  34.2279  34.2877
    34.4464  34.6547  34.7671  34.9956  35.1509  35.2452  35.3929  35.6887
    35.8779  35.9475  36.1968  36.4956  36.6603  36.8388  36.8883  37.0080
    37.1637  37.2737  37.3593  37.5642  37.7127  37.9144  38.0901  38.2706
    38.3481  38.3855  38.5938  38.7863  39.1581  39.3782  39.3912  39.4991
    39.6538  39.8030  40.0470  40.1643  40.2615  40.4410  40.5978  40.8228
    41.1467  41.4166  41.5655  41.7846  41.8842  42.0442  42.2672  42.3417
    42.4085  42.6319  42.6983  42.7625  42.9561  43.0174  43.2260  43.4412
    43.5663  43.8297  43.9783  44.0379  44.3294  44.5363  44.6939  44.9224

          k = 0.0000 0.0000-0.6124 (  7672 PWs)   bands (ev):

   -98.0556 -80.2164 -59.5750 -58.1188 -57.9814 -46.4469 -46.4316 -46.2886
   -25.4357 -25.1697 -19.0798 -18.3867 -17.4134 -16.6185 -12.6358 -12.4877
   -12.1468 -11.9754 -11.5766 -11.3427  -9.9449  -9.0334  -8.7595  -8.6587
    -8.6222  -8.5259  -6.6060  -6.3695  -5.0611  -4.4300  -4.1011  -3.6434
    -3.4090  -2.6205  -2.1865  -1.6547  -1.1835  -1.0555  -0.9022  -0.3383
    -0.0973   0.4063   0.5527   0.6529   0.7183   0.8689   0.9206   1.0960
     1.2501   1.2761   1.7002   1.7484   1.9734   2.3138   2.4204   2.7257
     2.8940   3.0475   3.1075   3.2724   3.6168   3.8237   4.0999   4.2763
     4.8257   4.9408   5.1881   5.6744   5.9238   6.0829   8.7157   9.1330
     9.5348   9.7059   9.8278   9.9697  10.0049  10.1129  10.2239  10.5227
    10.6349  10.8099  10.9565  11.0819  11.3321  11.4762  11.5797  11.7709
    11.9190  12.1443  12.3390  12.4900  12.5310  12.7519  12.9598  12.9807
    13.2763  13.5740  14.1162  14.3237  15.2367  15.9638  16.2020  16.4956
    16.7283  16.9987  17.2888  17.4672  17.8820  18.0200  18.3561  18.5684
    18.7040  18.9027  19.0933  19.3266  19.3915  19.7284  19.8972  20.0308
    20.4123  20.6588  20.8081  21.1151  21.3978  21.5187  21.6615  22.0589
    22.2922  22.5531  22.7962  22.9484  23.1230  23.2334  23.4575  23.7897
    24.0778  24.2697  24.3783  24.4518  24.7302  24.9105  25.1668  25.3633
    25.3949  25.5864  25.7416  25.8063  25.9723  26.0516  26.5038  26.6166
    26.8119  26.9325  27.1100  27.5486  27.9111  28.0614  28.0968  28.2014
    28.5326  28.5461  29.1354  29.3556  29.4359  29.6271  29.7319  29.9468
    30.1890  30.3719  30.5613  30.7450  30.9102  31.1246  31.2740  31.5204
    31.7338  31.8645  32.0331  32.2870  32.3577  32.6166  32.8055  33.0976
    33.1287  33.3103  33.5802  33.7293  33.8156  33.8947  33.9903  34.2827
    34.4894  34.7731  34.9717  35.2835  35.3179  35.4692  35.6496  35.8978
    36.0450  36.1753  36.3567  36.5858  36.6224  36.7912  36.9687  37.1388
    37.3439  37.4581  37.5816  37.9395  37.9867  38.0635  38.2438  38.4113
    38.5451  38.5857  38.7922  39.0061  39.2471  39.3038  39.5416  39.5788
    39.8118  39.9486  40.1865  40.2648  40.4020  40.7465  40.8950  40.9955
    41.3162  41.5727  41.7486  41.8304  42.1346  42.2827  42.5273  42.6876
    42.7995  42.9382  43.0419  43.2712  43.4104  43.5293  43.6496  43.7258
    44.0011  44.1364  44.1703  44.3372  44.4827  44.6675  44.7884  44.9411

          k = 0.0000-0.5774 0.2041 (  7672 PWs)   bands (ev):

   -98.0556 -80.2164 -59.5750 -58.1188 -57.9814 -46.4469 -46.4316 -46.2886
   -25.4355 -25.1698 -19.0090 -18.5336 -17.2954 -16.6567 -12.6515 -12.4572
   -12.1575 -11.9805 -11.5604 -11.3521  -9.9488  -9.0309  -8.7564  -8.6751
    -8.6114  -8.5272  -6.6363  -6.4336  -5.1297  -4.2889  -4.1180  -3.5900
    -3.0583  -2.6110  -2.2072  -2.0097  -1.3498  -1.2472  -0.9334  -0.1560
     0.0854   0.3892   0.4681   0.6073   0.7550   0.9245   1.0408   1.1647
     1.2562   1.3299   1.6514   1.8838   1.9453   2.2053   2.5144   2.6882
     2.8249   2.8438   2.9497   3.2490   3.4450   4.0054   4.1971   4.4259
     4.8231   5.1081   5.4800   5.5776   5.8109   5.9164   8.6585   9.1035
     9.5408   9.6911   9.7995   9.8935  10.0066  10.0922  10.3391  10.4118
    10.7315  10.7480  10.9898  11.2053  11.3621  11.4671  11.6347  11.6931
    11.8205  12.0191  12.4313  12.5590  12.6509  12.7766  12.8693  12.9912
    13.3753  13.6938  13.9844  14.5541  14.8891  15.5554  16.2150  16.6161
    16.8384  17.0255  17.1464  17.3354  17.6167  18.0443  18.5225  18.7955
    18.8862  18.9591  19.2139  19.3601  19.5513  19.7350  19.8566  20.2237
    20.3743  20.5354  20.7499  20.9843  21.1552  21.3449  21.4913  22.0641
    22.2083  22.3675  22.8052  23.1597  23.4803  23.5634  23.6611  23.7758
    23.9789  24.1796  24.3544  24.5592  24.6321  24.8058  25.0128  25.2830
    25.3514  25.4526  25.7773  25.9006  26.2306  26.4168  26.6818  26.8129
    26.9925  27.0984  27.3088  27.3781  27.8202  27.9405  28.1446  28.4530
    28.7057  28.8203  28.9231  29.2341  29.3830  29.5309  29.7095  29.8037
    30.0190  30.2512  30.5459  30.6422  30.7692  30.8805  31.0393  31.4138
    31.5489  31.6050  31.8431  31.9847  32.1900  32.5726  32.7242  32.8697
    33.2994  33.3185  33.4413  33.6887  33.8077  34.0290  34.1698  34.3167
    34.7642  34.9330  35.1333  35.1709  35.3651  35.4699  35.5968  36.0053
    36.0995  36.1076  36.3171  36.5039  36.7153  36.8377  36.9489  37.0619
    37.2926  37.5562  37.7419  37.8494  38.0273  38.1046  38.3321  38.4453
    38.6238  38.7782  38.8761  39.0542  39.1555  39.3536  39.4073  39.6240
    39.7717  39.8932  40.0722  40.2122  40.6686  40.8333  40.9280  41.0763
    41.3653  41.6685  41.8592  42.0238  42.1500  42.2092  42.4637  42.5669
    42.6718  42.9305  42.9728  43.2866  43.4281  43.5919  43.6410  43.7708
    43.9212  44.1130  44.1205  44.2644  44.4340  44.6156  44.6557  44.9435

          k = 0.0000-0.5774-0.4082 (  7704 PWs)   bands (ev):

   -98.0556 -80.2164 -59.5750 -58.1188 -57.9814 -46.4469 -46.4316 -46.2886
   -25.4355 -25.1697 -19.0090 -18.5342 -17.2956 -16.6571 -12.6541 -12.4397
   -12.1141 -12.0455 -11.5491 -11.3571  -9.9494  -9.0327  -8.7586  -8.6751
    -8.6129  -8.5298  -6.6117  -6.3618  -5.1898  -4.3982  -4.0722  -3.6045
    -3.1921  -2.6273  -2.0140  -1.7543  -1.6419  -1.0057  -0.8666  -0.2784
     0.1194   0.2328   0.4881   0.6800   0.7496   0.8643   0.8967   0.9493
     1.1956   1.3650   1.5032   1.8729   1.9621   2.3470   2.5668   2.7144
     2.7380   2.8502   3.1304   3.3518   3.5481   3.8250   4.3972   4.6236
     4.9460   5.0961   5.2549   5.3749   5.8612   6.0587   8.7895   9.2876
     9.4706   9.5296   9.6572   9.9384  10.1240  10.2545  10.3788  10.4325
    10.5157  10.7978  11.0517  11.1763  11.3626  11.5364  11.6544  11.7823
    11.8592  12.0761  12.3542  12.5097  12.6017  12.7151  12.8335  12.9507
    13.2218  13.4124  13.7618  14.2182  14.9127  15.2432  16.2177  16.4109
    16.7670  17.0602  17.0998  17.4746  17.8779  18.1494  18.2552  18.5148
    18.9183  19.1475  19.3313  19.4656  19.7454  19.8423  20.0687  20.2822
    20.5818  20.8250  20.9243  21.1646  21.5507  21.6219  21.8226  22.0026
    22.1845  22.5707  22.9066  23.0157  23.1003  23.4017  23.4373  23.8108
    24.1911  24.2648  24.3684  24.5924  24.7653  24.8560  25.0118  25.1198
    25.3413  25.6199  25.7867  26.1035  26.1969  26.4504  26.5497  26.7359
    26.9483  27.0135  27.1632  27.3866  27.6554  27.7290  27.8030  27.9811
    28.3305  28.4894  28.5940  28.7937  29.1290  29.5684  29.6799  29.8963
    30.0576  30.2717  30.5039  30.6058  30.7621  31.0443  31.3196  31.4262
    31.5482  31.7943  32.0854  32.2027  32.4869  32.6345  32.8715  32.9832
    33.1760  33.4027  33.5661  33.7115  33.8453  34.0448  34.1319  34.2493
    34.5230  34.6121  34.7527  34.8983  35.1178  35.2227  35.5549  35.6096
    35.9754  36.1458  36.2437  36.4905  36.6399  37.0066  37.1102  37.2785
    37.4884  37.5255  37.7415  37.9647  38.0000  38.1557  38.5531  38.5665
    38.7250  38.9610  39.1087  39.1548  39.3779  39.5810  39.8160  40.0091
    40.1533  40.3944  40.5305  40.5536  40.6634  40.8951  41.1505  41.2655
    41.4806  41.6276  41.6997  41.7743  41.8379  42.0219  42.2896  42.4165
    42.5729  42.7765  42.9399  43.0471  43.1402  43.4126  43.6405  43.7514
    43.9153  44.0127  44.3080  44.3540  44.4575  44.6601  44.7538  44.9950

          k =-0.5000-0.2887 0.4082 (  7704 PWs)   bands (ev):

   -98.0556 -80.2164 -59.5750 -58.1189 -57.9814 -46.4469 -46.4316 -46.2886
   -25.4355 -25.1698 -19.0406 -18.4725 -17.3573 -16.6255 -12.6390 -12.4575
   -12.1534 -11.9854 -11.5315 -11.3749  -9.9644  -9.0539  -8.7631  -8.6745
    -8.6109  -8.5312  -6.7215  -6.3202  -4.9921  -4.5959  -3.8936  -3.5879
    -3.0296  -2.5467  -2.4601  -2.0023  -1.2550  -0.8924  -0.5517  -0.4271
    -0.1210   0.2069   0.2908   0.5036   0.7269   0.8453   0.8872   1.0812
     1.1866   1.3939   1.6852   1.8251   2.0343   2.1513   2.3510   2.7361
     2.9018   2.9072   3.0554   3.3239   3.8704   4.1185   4.4139   4.5308
     4.8016   5.0120   5.2219   5.5489   5.7831   5.9932   8.8127   9.0877
     9.4790   9.6799   9.7594  10.0356  10.0773  10.2683  10.2831  10.4184
    10.5043  10.8343  11.0427  11.0969  11.2538  11.5349  11.6047  11.8153
    11.9038  11.9832  12.2168  12.3779  12.5272  12.6921  12.7729  13.0984
    13.2658  13.5099  13.7236  14.7641  15.0045  15.2630  15.9461  16.5840
    17.0223  17.0930  17.2611  17.6172  17.7781  18.0087  18.2334  18.4766
    18.7433  19.0229  19.2331  19.5664  19.8190  19.9181  19.9896  20.2630
    20.3873  20.5108  20.9767  21.2000  21.3789  21.4805  21.6952  22.1427
    22.4147  22.5693  22.7724  22.9087  23.2782  23.3684  23.5304  23.7879
    23.9410  24.1806  24.3844  24.5954  24.6361  24.9073  25.0968  25.2642
    25.5154  25.7386  25.7850  26.1155  26.2743  26.3920  26.4685  26.7960
    26.9991  27.1460  27.2959  27.3585  27.6558  27.8167  27.9351  27.9581
    28.2661  28.5467  28.6872  28.9775  29.1263  29.1581  29.2778  29.5956
    29.9186  30.3591  30.4490  30.5488  30.7347  31.0295  31.1869  31.3529
    31.5841  31.8781  32.1761  32.5223  32.6003  32.8326  32.8934  33.0889
    33.3610  33.5116  33.6477  33.7605  33.9502  34.0105  34.1402  34.5687
    34.6679  34.7881  34.8679  35.0203  35.2085  35.2775  35.4061  35.6084
    35.6586  35.8016  36.2925  36.5903  36.6977  36.8001  37.0009  37.1674
    37.2576  37.6800  37.7301  37.8563  37.9586  38.0970  38.2923  38.7446
    38.8758  38.9970  39.0496  39.1613  39.3618  39.6568  39.8335  40.0048
    40.0750  40.3908  40.5388  40.6482  40.7506  40.8973  41.0316  41.1149
    41.4527  41.4996  41.6384  41.7461  41.8308  41.9947  42.1675  42.3460
    42.4297  42.7405  42.9064  42.9725  43.1056  43.2832  43.5524  43.6479
    43.8913  44.0611  44.2339  44.3042  44.5583  44.6690  44.7458  44.8664

          k =-0.5000-0.2887-0.2041 (  7672 PWs)   bands (ev):

   -98.0556 -80.2164 -59.5750 -58.1188 -57.9814 -46.4469 -46.4316 -46.2886
   -25.4355 -25.1698 -19.0400 -18.4714 -17.3585 -16.6260 -12.6464 -12.4368
   -12.1158 -12.0433 -11.5675 -11.3426  -9.9523  -9.0614  -8.7656  -8.6723
    -8.6049  -8.5297  -6.6746  -6.2923  -5.0458  -4.6077  -3.9376  -3.6527
    -3.1584  -2.7591  -1.9787  -1.6861  -1.6434  -1.0151  -0.7149  -0.3955
    -0.1544   0.2238   0.4925   0.7545   0.7891   0.8924   1.0594   1.1974
     1.2480   1.2575   1.4404   1.9784   2.0971   2.1851   2.4687   2.6043
     2.7657   3.0212   3.2735   3.4065   3.4832   3.6890   4.1644   4.3788
     4.8628   4.9763   5.1659   5.8167   5.8431   6.0178   8.8309   9.0574
     9.3374   9.5611   9.8264   9.8995  10.0255  10.3471  10.3864  10.4716
    10.6361  10.8092  10.9043  11.1567  11.2226  11.3874  11.6661  11.7171
    11.8921  12.1668  12.2517  12.5251  12.5742  12.8582  12.9255  12.9893
    13.2910  13.8033  14.1747  14.3199  14.9919  15.5101  16.3742  16.6186
    16.6904  16.9888  17.2537  17.5783  17.7524  17.9625  18.0630  18.5727
    18.7081  18.9711  19.0797  19.2876  19.4348  19.5691  19.7541  19.9437
    20.4418  20.8239  20.9784  21.2513  21.4941  21.7364  21.8397  22.1914
    22.4358  22.5913  22.7098  23.0426  23.2663  23.3812  23.5262  23.7584
    24.1084  24.4032  24.4880  24.5441  24.6751  24.9387  25.0415  25.1669
    25.4320  25.5403  25.5911  25.8744  26.1008  26.3563  26.5506  26.7682
    26.8937  26.9774  27.1892  27.3218  27.6032  27.8023  28.1287  28.3640
    28.5498  28.6837  28.9329  29.0410  29.3798  29.5391  29.5588  29.8512
    30.1308  30.2402  30.3214  30.5554  30.6438  30.7327  31.2618  31.2949
    31.5263  31.8719  32.1089  32.1745  32.4537  32.5617  32.7987  33.0805
    33.2486  33.4369  33.5375  33.6836  33.8350  34.0876  34.2518  34.5149
    34.6430  34.8315  34.9435  35.1295  35.4071  35.5216  35.6871  35.8903
    35.9412  36.0278  36.3318  36.4349  36.7333  36.8458  36.9372  37.1651
    37.2586  37.3705  37.4850  37.6978  37.9219  38.2438  38.3109  38.3862
    38.5864  38.6228  38.9305  38.9875  39.2269  39.3821  39.5539  39.8532
    39.9950  40.0877  40.2518  40.3794  40.5365  40.6783  41.0391  41.1221
    41.5357  41.7972  41.8769  42.1014  42.2243  42.3548  42.4193  42.7530
    42.8059  42.8930  43.0291  43.3978  43.4826  43.5436  43.6805  43.7889
    43.8618  44.0023  44.0924  44.2561  44.4680  44.5687  44.6251  44.9357

          k = 0.5000-0.2887-0.2041 (  7672 PWs)   bands (ev):

   -98.0556 -80.2164 -59.5750 -58.1188 -57.9814 -46.4469 -46.4316 -46.2886
   -25.4356 -25.1696 -19.0099 -18.5026 -17.4105 -16.5676 -12.6151 -12.4376
   -12.1196 -11.9858 -11.5887 -11.4356  -9.9584  -9.0405  -8.7608  -8.6558
    -8.6272  -8.5274  -6.7864  -6.2152  -4.9467  -4.7320  -3.7420  -3.6174
    -3.0439  -2.8573  -2.1405  -1.8055  -1.4625  -0.9740  -0.8607  -0.2788
    -0.0150   0.0262   0.4514   0.4883   0.8683   1.0892   1.1508   1.2330
     1.2740   1.3271   1.4836   1.6813   1.9829   2.1613   2.3485   2.5802
     2.8337   3.1266   3.2130   3.2916   3.4551   3.7290   3.9639   4.1993
     5.0498   5.2601   5.5077   5.7386   5.9057   6.1763   8.6907   9.2430
     9.2581   9.5135   9.7462  10.0022  10.0215  10.1804  10.3291  10.3950
    10.7066  10.9952  11.0373  11.3197  11.4304  11.5682  11.6249  11.7368
    11.8077  11.9957  12.1328  12.3716  12.4723  12.7545  12.7979  12.9511
    13.1929  13.5495  14.0568  14.6927  14.8702  15.5635  16.0748  16.2308
    16.6633  16.8636  16.9014  17.5690  17.8719  18.1220  18.2646  18.6780
    18.9163  19.1273  19.3972  19.5584  19.8041  20.0468  20.1572  20.3177
    20.4790  20.7065  21.0740  21.2986  21.4429  21.6744  21.7583  22.0069
    22.1396  22.4669  22.8366  23.1575  23.2278  23.4239  23.5334  23.8783
    23.9766  24.1210  24.2425  24.4189  24.5483  24.8414  24.9670  25.1375
    25.2521  25.3935  25.5445  25.5724  25.7844  26.0045  26.1494  26.6519
    26.6993  26.8344  27.0820  27.5342  27.6404  27.8903  27.9373  28.1530
    28.3930  28.4662  28.8122  29.1275  29.3080  29.4357  29.8001  29.8394
    30.0857  30.3329  30.6931  30.7365  31.0726  31.2436  31.5765  31.8262
    32.0214  32.1019  32.1928  32.3033  32.3968  32.5516  32.6708  32.9331
    33.2307  33.3092  33.7117  33.7490  33.8790  34.1834  34.3263  34.3460
    34.7252  34.7551  35.1726  35.3588  35.6190  35.6849  36.1326  36.2782
    36.3024  36.4611  36.5147  36.6257  36.7361  36.8949  36.9743  37.1267
    37.1722  37.4307  37.6111  37.8851  38.0128  38.1095  38.2560  38.3215
    38.4244  38.6239  38.7755  38.8959  39.0652  39.0975  39.3416  39.5247
    39.6682  40.0898  40.2021  40.2681  40.4259  40.6711  40.9300  40.9967
    41.2155  41.3973  41.6696  41.8822  42.0414  42.0961  42.3137  42.4122
    42.5246  42.7238  42.8016  42.8741  43.0255  43.2150  43.3440  43.5482
    43.6858  43.9112  44.0969  44.1271  44.2547  44.5704  44.6646  44.8222

          k = 0.5000-0.2887 0.4082 (  7704 PWs)   bands (ev):

   -98.0556 -80.2164 -59.5750 -58.1189 -57.9814 -46.4469 -46.4316 -46.2886
   -25.4356 -25.1696 -19.0089 -18.5023 -17.4113 -16.5672 -12.6227 -12.4844
   -12.1588 -11.9800 -11.5390 -11.3756  -9.9508  -9.0442  -8.7583  -8.6548
    -8.6163  -8.5283  -6.7703  -6.2275  -5.0185  -4.7495  -3.8463  -3.6481
    -3.0952  -2.6194  -2.3582  -1.6494  -1.2204  -0.9478  -0.8176  -0.5305
    -0.1905   0.0723   0.3993   0.5846   0.8221   0.8745   0.9133   1.1816
     1.2908   1.4250   1.8989   1.9150   2.0166   2.1300   2.3569   2.6717
     2.7316   2.9411   3.1357   3.4376   3.4659   3.8088   4.2216   4.7331
     4.9147   5.0399   5.2651   5.3556   5.8648   6.1628   8.7011   9.1870
     9.5338   9.6244   9.7801  10.0526  10.1062  10.2193  10.3062  10.3684
    10.6426  10.7060  10.9346  11.0276  11.3202  11.4100  11.5808  11.8515
    12.0248  12.0296  12.4372  12.5479  12.5909  12.6924  12.8274  13.0342
    13.3186  13.4599  13.7415  13.9724  15.5692  15.6813  16.0213  16.2345
    16.5177  17.0658  17.0976  17.5308  17.6168  18.0827  18.2396  18.5590
    18.9885  19.2508  19.4083  19.5271  19.6930  19.8276  19.9278  20.1525
    20.4026  20.5174  20.7380  21.2751  21.6004  21.8451  22.0638  22.2232
    22.3136  22.4884  22.7192  22.8387  22.9291  23.1960  23.5367  23.8041
    24.0290  24.0680  24.3173  24.5651  24.7842  24.8655  25.0202  25.3274
    25.6496  25.6573  25.8247  26.0471  26.2783  26.4263  26.5640  26.9063
    27.0315  27.1799  27.4260  27.4824  27.7099  27.9182  28.0496  28.1823
    28.2545  28.4567  28.5115  28.7269  29.0949  29.3846  29.6949  29.7658
    29.9989  30.2856  30.5055  30.6245  30.8956  30.9970  31.3667  31.5535
    31.5786  31.7720  31.8495  32.1571  32.1697  32.4320  32.5932  32.9327
    33.0960  33.2532  33.4234  33.5754  33.8271  33.9158  33.9774  34.2882
    34.5535  34.6625  34.8093  34.9367  35.0730  35.1373  35.3629  35.5990
    35.8771  36.0597  36.2720  36.5470  36.7060  37.0015  37.1718  37.2393
    37.3043  37.4150  37.7851  37.8458  38.1167  38.4760  38.6016  38.7816
    38.9243  39.1412  39.2098  39.5151  39.6195  39.8146  39.8335  39.9838
    40.2030  40.3288  40.5437  40.7857  40.8157  40.9524  41.0422  41.3534
    41.5404  41.5835  41.8124  41.8811  42.0245  42.1894  42.2865  42.4617
    42.5443  42.6879  42.9189  43.1196  43.1861  43.3088  43.4766  43.6862
    43.7978  43.9388  44.0832  44.3012  44.5590  44.7143  44.7590  44.8873

 ------ SPIN DOWN ----------


          k = 0.0000 0.0000 0.0000 (  7727 PWs)   bands (ev):

   -95.9070 -80.2147 -56.8450 -56.3459 -56.3107 -46.4488 -46.4317 -46.2813
   -25.4318 -25.1654 -18.9756 -18.2862 -17.3664 -16.5803 -12.5891 -12.3800
   -12.0723 -11.9375 -11.6072 -11.3210  -9.9315  -9.0203  -8.7603  -8.6478
    -8.6309  -8.5226  -6.5712  -6.2746  -4.8469  -4.2848  -3.9556  -3.6399
    -3.2443  -2.2454  -2.1491  -1.8872  -1.4903  -0.3099  -0.1861  -0.1076
     0.2147   0.3669   0.5727   0.7541   0.8467   0.9393   1.1912   1.5884
     1.6202   1.6970   2.0789   2.1183   2.2746   2.3326   2.4113   2.7910
     2.9233   3.0335   3.1024   3.8293   3.9893   4.2686   4.6894   4.8697
     5.2038   5.4744   5.5314   6.3150   7.7339   7.7974   8.7427   8.9482
     9.2173   9.4890   9.7527   9.8242   9.9325  10.1316  10.2300  10.6462
    10.7509  10.9851  11.1034  11.3592  11.5741  11.8442  12.0286  12.0588
    12.2370  12.4342  12.4923  12.5970  12.6919  12.7983  12.8798  12.9836
    13.4275  13.9251  14.1170  15.0021  15.1826  15.7523  16.3178  16.6298
    16.7998  16.8657  17.0344  17.4142  17.5345  18.2524  18.3710  18.7365
    18.8707  19.0013  19.2261  19.5441  19.6679  19.8462  20.0221  20.1536
    20.3103  20.5611  20.6351  20.8219  21.0354  21.2717  21.6965  21.7758
    22.0280  22.1044  22.2591  22.5319  22.6367  23.1382  23.3024  23.6057
    23.9273  23.9866  24.2456  24.3165  24.5481  24.8459  24.8890  25.0417
    25.3091  25.3530  25.5351  26.0021  26.2221  26.5782  26.8337  27.0092
    27.1270  27.2288  27.5192  27.6987  28.0167  28.0455  28.1526  28.2940
    28.3559  29.2339  29.3451  29.5498  29.5658  29.8613  30.1210  30.2935
    30.5796  30.7258  30.8822  31.0179  31.2507  31.5562  31.6898  31.7209
    31.9068  32.2213  32.3017  32.5459  32.8764  32.9825  33.2124  33.3536
    33.4309  33.4640  33.7825  33.9249  33.9641  34.0002  34.2597  34.3221
    34.4799  34.6852  34.7904  35.0315  35.1681  35.2671  35.4087  35.7026
    35.9033  35.9921  36.2185  36.5173  36.6838  36.8556  36.9134  37.0644
    37.1901  37.2923  37.3788  37.5740  37.7261  37.9356  38.1174  38.3028
    38.3913  38.4302  38.6286  38.8281  39.2121  39.4022  39.4607  39.5428
    39.7021  39.8265  40.0949  40.2080  40.2966  40.4635  40.6149  40.8464
    41.1632  41.4498  41.5972  41.8083  41.9181  42.0812  42.2866  42.3732
    42.4426  42.6492  42.7131  42.8008  42.9807  43.0504  43.2559  43.4624
    43.5864  43.8612  44.0156  44.0674  44.3679  44.6003  44.7151  44.9480

          k = 0.0000 0.0000-0.6124 (  7672 PWs)   bands (ev):

   -95.9070 -80.2147 -56.8449 -56.3458 -56.3106 -46.4488 -46.4317 -46.2813
   -25.4317 -25.1654 -18.9754 -18.2875 -17.3659 -16.5798 -12.6006 -12.4322
   -12.0924 -11.9326 -11.5152 -11.3040  -9.9375  -9.0253  -8.7552  -8.6517
    -8.6150  -8.5216  -6.5489  -6.2619  -4.9304  -4.3334  -3.9429  -3.5893
    -3.3342  -2.5768  -2.0991  -1.5924  -1.1273  -0.4903  -0.3367  -0.1475
     0.2594   0.4498   0.6943   0.7320   0.8029   1.0186   1.1097   1.2754
     1.3602   1.6752   1.8138   1.9342   2.1603   2.5449   2.6114   2.9081
     3.0818   3.4204   3.7178   3.8178   3.9814   4.1820   4.4144   4.5610
     4.9198   5.2512   5.8952   6.5065   7.9648   8.2647   8.8201   9.1802
     9.5533   9.7557   9.8513   9.9997  10.0236  10.1670  10.2676  10.5589
    10.6839  10.8475  10.9936  11.1018  11.3486  11.4987  11.5979  11.7842
    11.9385  12.1617  12.3537  12.5117  12.5445  12.7780  12.9769  13.0099
    13.2865  13.5844  14.1416  14.3372  15.2557  15.9779  16.2475  16.5758
    16.8938  17.1208  17.3112  17.4976  17.8921  18.0382  18.3700  18.5822
    18.7344  18.9359  19.1121  19.3507  19.4572  19.7544  20.0158  20.0508
    20.4192  20.6812  20.8253  21.1278  21.4190  21.5313  21.6697  22.0897
    22.3097  22.5687  22.8116  22.9787  23.1404  23.2703  23.4821  23.8211
    24.0972  24.2934  24.4041  24.4875  24.7641  24.9496  25.1930  25.3869
    25.4192  25.6446  25.7686  25.8398  25.9959  26.0755  26.5312  26.6509
    26.8378  26.9776  27.1424  27.5796  27.9298  28.0893  28.1344  28.2162
    28.5531  28.5679  29.1627  29.3805  29.4549  29.6581  29.7589  29.9838
    30.2115  30.3914  30.5906  30.7680  30.9401  31.1408  31.2902  31.5410
    31.7475  31.8833  32.0519  32.3047  32.3837  32.6389  32.8346  33.1371
    33.1720  33.3467  33.6138  33.7616  33.8554  33.9275  34.0404  34.3015
    34.5207  34.8106  34.9929  35.2999  35.3506  35.5040  35.6941  35.9204
    36.0719  36.2226  36.3842  36.6130  36.6718  36.8278  36.9887  37.1619
    37.3614  37.4905  37.6007  37.9726  38.0049  38.0818  38.3128  38.4502
    38.5766  38.6222  38.8260  39.0290  39.2638  39.3353  39.5666  39.6041
    39.8296  39.9709  40.2154  40.2929  40.4398  40.7771  40.9377  41.0170
    41.3457  41.5943  41.7712  41.8525  42.1503  42.2999  42.5442  42.7048
    42.8376  42.9634  43.0611  43.2964  43.4466  43.5498  43.6744  43.7510
    44.0171  44.1694  44.1908  44.3608  44.5066  44.6837  44.8211  45.0028

          k = 0.0000-0.5774 0.2041 (  7672 PWs)   bands (ev):

   -95.9070 -80.2147 -56.8449 -56.3458 -56.3106 -46.4488 -46.4317 -46.2813
   -25.4316 -25.1655 -18.9133 -18.4247 -17.2425 -16.6256 -12.6131 -12.3982
   -12.1128 -11.9370 -11.4990 -11.3102  -9.9405  -9.0232  -8.7505  -8.6717
    -8.6018  -8.5231  -6.5659  -6.3459  -4.9826  -4.1733  -4.0133  -3.5118
    -2.9861  -2.5888  -2.1159  -1.9418  -1.2958  -0.6943  -0.1203   0.0008
     0.1776   0.4382   0.5312   0.8236   0.9036   1.0787   1.1367   1.3412
     1.4467   1.5333   1.7618   2.0986   2.2855   2.3290   2.7290   2.8256
     2.9673   3.0916   3.6588   3.8440   4.3156   4.3628   4.4330   4.6382
     4.8543   5.4450   5.7122   6.4536   7.9459   8.1061   8.8485   9.1532
     9.5927   9.7534   9.8438   9.9105  10.0522  10.1499  10.3717  10.4630
    10.7550  10.7809  11.0281  11.2238  11.3693  11.4839  11.6646  11.7068
    11.8324  12.0329  12.4573  12.5746  12.6708  12.7988  12.8901  13.0117
    13.3969  13.7164  14.0051  14.5664  14.9042  15.5759  16.2485  16.7725
    16.9894  17.0826  17.1691  17.3559  17.6446  18.0559  18.5395  18.8151
    18.9025  19.0071  19.2435  19.3884  19.5742  19.7810  19.8847  20.2803
    20.4164  20.5859  20.7608  20.9977  21.1758  21.3586  21.5131  22.1018
    22.2394  22.4007  22.8239  23.1729  23.4927  23.5973  23.6880  23.8006
    23.9973  24.1965  24.3677  24.5866  24.6682  24.8252  25.0499  25.3135
    25.3749  25.4838  25.7958  25.9240  26.2752  26.4418  26.7071  26.8358
    27.0187  27.1376  27.3420  27.4006  27.8374  27.9803  28.1723  28.4703
    28.7378  28.8393  28.9471  29.2705  29.4147  29.5652  29.7276  29.8367
    30.0508  30.2806  30.5784  30.6718  30.7904  30.9114  31.0764  31.4309
    31.5755  31.6501  31.8551  32.0088  32.2070  32.5983  32.7359  32.9052
    33.3202  33.3474  33.4851  33.7082  33.8765  34.0555  34.2082  34.3523
    34.8008  34.9565  35.1592  35.1863  35.3923  35.4845  35.6363  36.0358
    36.1238  36.1362  36.3388  36.5378  36.7468  36.8645  36.9633  37.1070
    37.3165  37.5813  37.7638  37.8713  38.0532  38.1454  38.3765  38.4779
    38.6404  38.8024  38.9138  39.0956  39.1879  39.3805  39.4437  39.6497
    39.8029  39.9286  40.1051  40.2345  40.6807  40.8688  40.9444  41.0945
    41.3928  41.7003  41.8929  42.0431  42.1715  42.2277  42.5249  42.6435
    42.7065  42.9614  43.0190  43.3064  43.4585  43.6091  43.6778  43.7862
    43.9465  44.1357  44.1490  44.2967  44.4582  44.6442  44.6925  44.9740

          k = 0.0000-0.5774-0.4082 (  7704 PWs)   bands (ev):

   -95.9070 -80.2147 -56.8450 -56.3458 -56.3107 -46.4488 -46.4317 -46.2813
   -25.4316 -25.1654 -18.9134 -18.4252 -17.2428 -16.6259 -12.6182 -12.3795
   -12.0651 -12.0034 -11.4859 -11.3185  -9.9410  -9.0250  -8.7529  -8.6719
    -8.6033  -8.5256  -6.5364  -6.2759  -5.0496  -4.2839  -3.9696  -3.5290
    -3.1292  -2.5562  -1.9452  -1.7123  -1.5142  -0.3695  -0.2188  -0.0934
     0.2690   0.3292   0.5377   0.7917   0.8812   0.9653   1.1106   1.2143
     1.3099   1.4782   1.7051   2.0627   2.3978   2.4980   2.6733   2.8213
     2.8968   3.3864   3.5575   3.8458   4.0801   4.3183   4.5831   5.0203
     5.1515   5.3171   5.6612   6.3782   7.8271   8.3498   8.8699   9.3041
     9.4952   9.5676   9.6894   9.9894  10.1772  10.2976  10.4008  10.4637
    10.5470  10.8171  11.0801  11.1981  11.4174  11.5573  11.6724  11.8112
    11.8891  12.0954  12.3663  12.5273  12.6202  12.7260  12.8623  12.9790
    13.2484  13.4417  13.7695  14.2310  14.9319  15.2640  16.2510  16.4703
    16.8819  17.0838  17.2692  17.4886  17.9301  18.1710  18.2709  18.5263
    18.9377  19.1771  19.3476  19.5653  19.7707  19.9055  20.1181  20.3108
    20.6085  20.8438  20.9477  21.1798  21.5763  21.6476  21.8344  22.0247
    22.2037  22.5965  22.9303  23.0437  23.1464  23.4217  23.4673  23.8283
    24.2023  24.2906  24.3870  24.6068  24.7850  24.8762  25.0235  25.1366
    25.3615  25.6405  25.8116  26.1236  26.2141  26.4725  26.5705  26.7669
    26.9859  27.0486  27.1970  27.4194  27.6991  27.7820  27.8625  27.9993
    28.3555  28.5080  28.6170  28.8244  29.1552  29.5882  29.7126  29.9126
    30.0722  30.2973  30.5254  30.6493  30.7900  31.0700  31.3529  31.4666
    31.5584  31.8194  32.0993  32.2291  32.5213  32.6567  32.8914  33.0030
    33.2056  33.4325  33.5868  33.7693  33.8814  34.0899  34.1657  34.2894
    34.5480  34.6336  34.7736  34.9302  35.1727  35.2594  35.6147  35.6538
    35.9944  36.1924  36.2825  36.5364  36.6712  37.0307  37.1378  37.3115
    37.5081  37.5468  37.7544  37.9802  38.0375  38.1774  38.5730  38.6033
    38.7483  39.0024  39.1308  39.1830  39.3988  39.6094  39.8336  40.0284
    40.1798  40.4156  40.5656  40.5718  40.6864  40.9312  41.1680  41.2845
    41.5032  41.6441  41.7192  41.7963  41.8636  42.0427  42.3113  42.4391
    42.6042  42.7942  42.9597  43.0826  43.1712  43.4831  43.6801  43.7999
    43.9403  44.0442  44.3386  44.3951  44.4736  44.6948  44.7899  45.0158

          k =-0.5000-0.2887 0.4082 (  7704 PWs)   bands (ev):

   -95.9070 -80.2147 -56.8449 -56.3458 -56.3107 -46.4488 -46.4317 -46.2813
   -25.4315 -25.1654 -18.9391 -18.3744 -17.2942 -16.5996 -12.5970 -12.4013
   -12.1095 -11.9423 -11.4672 -11.3371  -9.9571  -9.0422  -8.7566  -8.6714
    -8.6035  -8.5266  -6.6308  -6.2514  -4.9174  -4.3268  -3.8591  -3.5070
    -2.9540  -2.4863  -2.3815  -1.9358  -1.2267  -0.4130  -0.0896   0.0116
     0.2142   0.3873   0.4222   0.5415   0.8825   0.9732   1.0961   1.2366
     1.3060   1.5375   1.8712   1.9990   2.1498   2.4276   2.5970   2.9221
     2.9777   3.3677   3.8344   4.0243   4.0797   4.3559   4.6437   4.7335
     5.1135   5.3875   5.6264   6.3160   7.9048   8.3435   8.9067   9.1307
     9.5110   9.7003   9.7945  10.0574  10.1016  10.2999  10.3269  10.4412
    10.5343  10.8608  11.0580  11.1260  11.2847  11.5536  11.6319  11.8407
    11.9325  12.0147  12.2371  12.3998  12.5555  12.7099  12.8017  13.1188
    13.2903  13.5192  13.7359  14.7873  15.0165  15.2771  15.9905  16.6790
    17.0718  17.2256  17.3656  17.6341  17.7969  18.0269  18.2666  18.4980
    18.7706  19.0576  19.2564  19.5879  19.8682  19.9895  20.0163  20.2860
    20.4008  20.5947  20.9869  21.2160  21.3896  21.5104  21.7160  22.1618
    22.4466  22.5931  22.8076  22.9380  23.3007  23.3959  23.5609  23.8229
    23.9602  24.2042  24.4098  24.6042  24.6465  24.9176  25.1147  25.2941
    25.5362  25.7496  25.8042  26.1447  26.3083  26.4188  26.4940  26.8253
    27.0308  27.1729  27.3253  27.3880  27.6939  27.8474  27.9655  27.9779
    28.2972  28.5754  28.7093  29.0057  29.1500  29.1866  29.3097  29.6257
    29.9400  30.3761  30.4897  30.5907  30.7672  31.0490  31.2057  31.3721
    31.6064  31.9112  32.2063  32.5547  32.6198  32.8512  32.9149  33.1200
    33.3760  33.5319  33.6890  33.8146  33.9941  34.0312  34.1725  34.5993
    34.7094  34.8212  34.8879  35.0762  35.2383  35.3049  35.4619  35.6283
    35.6900  35.8366  36.3269  36.6375  36.7347  36.8230  37.0375  37.1803
    37.2926  37.7119  37.7518  37.9004  37.9893  38.1328  38.3098  38.7847
    38.8930  39.0434  39.0865  39.1838  39.3843  39.6777  39.8487  40.0257
    40.0955  40.4203  40.5659  40.6760  40.7652  40.9179  41.0528  41.1343
    41.4804  41.5375  41.6479  41.7719  41.8664  42.0044  42.1916  42.3697
    42.4483  42.7543  42.9312  43.0383  43.1206  43.3291  43.6057  43.6767
    43.9153  44.0805  44.2489  44.3166  44.6222  44.6941  44.7829  44.8786

          k =-0.5000-0.2887-0.2041 (  7672 PWs)   bands (ev):

   -95.9070 -80.2147 -56.8449 -56.3458 -56.3106 -46.4488 -46.4317 -46.2813
   -25.4316 -25.1655 -18.9383 -18.3734 -17.2955 -16.6001 -12.6097 -12.3770
   -12.0706 -11.9983 -11.5052 -11.3033  -9.9449  -9.0495  -8.7589  -8.6692
    -8.5973  -8.5250  -6.5862  -6.2212  -4.9763  -4.3574  -3.8921  -3.5764
    -3.0924  -2.6743  -1.8897  -1.6263  -1.5571  -0.4864  -0.3027  -0.0711
     0.1615   0.3366   0.5632   0.8412   0.9204   0.9886   1.2677   1.3403
     1.4584   1.4782   1.6541   2.1627   2.3320   2.4908   2.5337   2.8870
     3.0189   3.4691   3.5478   3.8388   4.1164   4.2378   4.4032   4.6111
     4.9528   5.2093   5.8604   6.5211   7.9781   8.1089   8.9960   9.1450
     9.4311   9.6254   9.8570   9.9167  10.0632  10.3802  10.4266  10.4904
    10.6557  10.8412  10.9457  11.1737  11.2513  11.4046  11.6833  11.7465
    11.8998  12.1790  12.2677  12.5415  12.6005  12.8786  12.9387  13.0069
    13.3214  13.8194  14.1860  14.3385  15.0100  15.5271  16.4636  16.6556
    16.8319  17.1013  17.2951  17.5992  17.7757  17.9787  18.0789  18.5915
    18.7431  18.9894  19.1055  19.2985  19.4758  19.6287  19.8673  19.9698
    20.4580  20.8401  20.9871  21.2697  21.5195  21.7662  21.8553  22.2033
    22.4710  22.6076  22.7341  23.0537  23.2883  23.4151  23.5376  23.7817
    24.1402  24.4236  24.5154  24.5753  24.7284  24.9781  25.0876  25.1809
    25.4564  25.5629  25.6115  25.8938  26.1361  26.3752  26.5698  26.7914
    26.9439  26.9943  27.2247  27.3477  27.6361  27.8425  28.1616  28.3861
    28.5773  28.7007  28.9667  29.0563  29.4156  29.5613  29.5924  29.8743
    30.1546  30.2539  30.3673  30.5809  30.6674  30.7548  31.2792  31.3101
    31.5409  31.8819  32.1300  32.2060  32.4853  32.5825  32.8258  33.1009
    33.2993  33.4770  33.6110  33.7252  33.8851  34.1050  34.2750  34.5435
    34.6686  34.8620  34.9724  35.1788  35.4292  35.5622  35.7301  35.9065
    35.9585  36.0516  36.3528  36.4684  36.7949  36.8733  36.9551  37.1907
    37.2813  37.3969  37.5120  37.7274  37.9495  38.2952  38.3356  38.4161
    38.6200  38.6412  38.9676  39.0256  39.2482  39.4025  39.5745  39.8713
    40.0190  40.1192  40.2763  40.4090  40.5627  40.7102  41.0679  41.1613
    41.5617  41.8202  41.8880  42.1136  42.2656  42.3812  42.4442  42.7794
    42.8462  42.9193  43.0565  43.4198  43.4940  43.5592  43.7052  43.8121
    43.8956  44.0246  44.1222  44.2829  44.5141  44.6062  44.6736  44.9950

          k = 0.5000-0.2887-0.2041 (  7672 PWs)   bands (ev):

   -95.9069 -80.2147 -56.8449 -56.3458 -56.3106 -46.4488 -46.4317 -46.2813
   -25.4317 -25.1653 -18.9238 -18.3751 -17.3675 -16.5368 -12.5761 -12.3792
   -12.0756 -11.9391 -11.5261 -11.3973  -9.9500  -9.0289  -8.7572  -8.6504
    -8.6202  -8.5226  -6.6984  -6.1497  -4.8379  -4.5432  -3.6738  -3.5395
    -2.9799  -2.7796  -2.1101  -1.6889  -1.3815  -0.3256  -0.1987  -0.1089
     0.1351   0.2888   0.5232   0.6593   0.9148   1.1388   1.1878   1.2548
     1.3334   1.3713   1.7125   1.9822   2.2303   2.5396   2.6905   2.8215
     3.0456   3.5183   3.6626   3.8565   3.9150   4.2036   4.4190   4.5089
     5.2732   5.6151   5.7656   6.4974   7.9144   8.4345   8.8459   9.2673
     9.2886   9.5588   9.7656  10.0302  10.0594  10.2361  10.3614  10.4195
    10.7255  11.0393  11.0641  11.3643  11.4477  11.5769  11.6442  11.7485
    11.8339  12.0147  12.1504  12.3931  12.4907  12.7636  12.8053  12.9655
    13.2093  13.5907  14.0718  14.7172  14.8836  15.5845  16.1001  16.2758
    16.7081  16.9033  17.1700  17.5961  17.8841  18.1364  18.2866  18.6877
    18.9286  19.1463  19.4309  19.5816  19.8296  20.0861  20.2306  20.3803
    20.5339  20.7296  21.1037  21.3230  21.4828  21.6930  21.7834  22.0220
    22.1513  22.4886  22.8520  23.1767  23.2513  23.4513  23.5603  23.8989
    24.0173  24.1504  24.2609  24.4394  24.5865  24.8668  24.9898  25.1702
    25.2806  25.4213  25.5723  25.5992  25.8033  26.0324  26.1721  26.6765
    26.7127  26.8529  27.1067  27.5525  27.6603  27.9077  27.9656  28.1721
    28.4177  28.4908  28.8427  29.1559  29.3378  29.4785  29.8307  29.8689
    30.1134  30.3620  30.7298  30.7675  31.0985  31.2799  31.6069  31.8580
    32.0431  32.1152  32.2131  32.3207  32.4150  32.5730  32.6962  32.9609
    33.2644  33.3450  33.7368  33.7758  33.9144  34.2100  34.3701  34.3840
    34.7562  34.7937  35.2279  35.3894  35.6562  35.7339  36.1607  36.3134
    36.3549  36.4936  36.5363  36.6495  36.7774  36.9074  36.9961  37.1504
    37.2010  37.4704  37.6435  37.9161  38.0452  38.1736  38.2959  38.3510
    38.4501  38.6327  38.8096  38.9173  39.0895  39.1052  39.3674  39.5513
    39.6984  40.1156  40.2231  40.2944  40.4493  40.6856  40.9516  41.0097
    41.2412  41.4245  41.7106  41.9014  42.0846  42.1358  42.3927  42.4761
    42.5434  42.7626  42.8581  42.9051  43.0503  43.2351  43.3894  43.5731
    43.7225  43.9341  44.1232  44.1555  44.2728  44.5828  44.6823  44.8366

          k = 0.5000-0.2887 0.4082 (  7704 PWs)   bands (ev):

   -95.9070 -80.2147 -56.8450 -56.3458 -56.3106 -46.4488 -46.4317 -46.2813
   -25.4317 -25.1653 -18.9226 -18.3750 -17.3683 -16.5364 -12.5883 -12.4253
   -12.1120 -11.9313 -11.4776 -11.3367  -9.9424  -9.0324  -8.7545  -8.6494
    -8.6092  -8.5234  -6.6817  -6.1622  -4.9116  -4.5613  -3.7866  -3.5830
    -3.0213  -2.5541  -2.2206  -1.6048  -1.1263  -0.4940  -0.2813  -0.2037
     0.0508   0.2422   0.4658   0.6370   0.8966   1.0161   1.1527   1.2973
     1.4501   1.7272   1.9792   2.1525   2.1907   2.5523   2.6657   2.7874
     2.8739   3.1907   3.7283   3.7810   3.9738   4.3583   4.5123   5.0108
     5.1099   5.3019   5.7191   6.4104   7.8240   8.2514   8.8903   9.2191
     9.5526   9.6491   9.7960  10.1088  10.1605  10.2567  10.3322  10.4102
    10.6874  10.7348  10.9757  11.0538  11.3390  11.4339  11.6325  11.8682
    12.0430  12.0519  12.4590  12.5651  12.6047  12.7284  12.8467  13.0450
    13.3444  13.4763  13.7563  13.9799  15.5879  15.6981  16.0843  16.2672
    16.5811  17.1163  17.2822  17.5589  17.6690  18.0935  18.2573  18.5785
    18.9991  19.2679  19.4849  19.6111  19.7179  19.8408  19.9422  20.1787
    20.4230  20.5782  20.7800  21.3111  21.6305  21.8705  22.0840  22.2434
    22.3262  22.5179  22.7353  22.8670  22.9734  23.2135  23.5559  23.8135
    24.0466  24.0839  24.3277  24.5760  24.8030  24.8892  25.0365  25.3425
    25.6763  25.6826  25.8615  26.0665  26.2959  26.4465  26.6178  26.9236
    27.0568  27.2154  27.4743  27.5302  27.7360  27.9804  28.0689  28.2003
    28.2781  28.4758  28.5393  28.7577  29.1195  29.4151  29.7112  29.7901
    30.0183  30.3001  30.5291  30.6576  30.9250  31.0143  31.4006  31.5663
    31.6099  31.8147  31.8691  32.1814  32.2013  32.4578  32.6228  32.9661
    33.1187  33.2821  33.4409  33.6246  33.8800  33.9812  34.0091  34.3158
    34.5850  34.6899  34.8229  34.9655  35.1056  35.1735  35.3954  35.6602
    35.9391  36.0935  36.2883  36.6071  36.7386  37.0192  37.2109  37.2585
    37.3315  37.4306  37.8089  37.8708  38.1336  38.4981  38.6302  38.7967
    38.9622  39.1627  39.2423  39.5433  39.6555  39.8312  39.8597  40.0140
    40.2261  40.3648  40.5624  40.7990  40.8673  40.9751  41.0569  41.3775
    41.5678  41.5916  41.8404  41.8921  42.0393  42.2071  42.3330  42.4801
    42.5640  42.7124  42.9746  43.1395  43.2122  43.3472  43.5057  43.7172
    43.8377  43.9578  44.1167  44.3452  44.5837  44.7311  44.7968  44.9350

     the Fermi energy is     7.1413 ev

!    total energy              =   -1035.61415663 Ry
     Harris-Foulkes estimate   =   -1035.61415589 Ry
     estimated scf accuracy    <          4.6E-09 Ry

     The total energy is the sum of the following terms:

     one-electron contribution =    -924.97677560 Ry
     hartree contribution      =     520.05002275 Ry
     xc contribution           =    -174.76275977 Ry
     ewald contribution        =    -456.05021825 Ry
     Hubbard energy            =       0.12559746 Ry
     smearing contrib. (-TS)   =      -0.00002323 Ry

     total magnetization       =     2.00 Bohr mag/cell
     absolute magnetization    =     2.14 Bohr mag/cell

     convergence has been achieved in  35 iterations

     Forces acting on atoms (Ry/au):

     atom    1 type  1   force =    -0.01009311   -0.02487814   -0.01442386
     atom    2 type  2   force =    -0.00631530   -0.03356315   -0.00328563
     atom    3 type  3   force =    -0.00139271    0.03084660   -0.02762126
     atom    4 type  4   force =    -0.05214678    0.29573150   -0.10221700
     atom    5 type  4   force =     0.04479854   -0.30578655    0.09725070
     atom    6 type  4   force =    -0.02479293    0.03102325    0.45655998
     atom    7 type  4   force =     0.01722407    0.00385699   -0.33297035
     atom    8 type  4   force =     0.40185841    0.17667268    0.15148206
     atom    9 type  4   force =    -0.27872621   -0.15156613   -0.14029218
     atom   10 type  3   force =     0.00426793   -0.01485117    0.02308976
     atom   11 type  3   force =     0.02799212    0.00055602    0.06511018
     atom   12 type  3   force =     0.01397779    0.01867689   -0.05647450
     atom   13 type  3   force =     0.04439716    0.05396813    0.05667045
[...]
     8.8394   8.9849   9.1112   9.2067   9.3357   9.3856   9.5842  10.2897
    10.3911  10.5396  10.9381  11.1051  11.4525  11.7600  12.4107  12.5095
    12.9926  13.2911  13.3624  13.4642  13.8167  13.8822  14.3505  14.6516
    14.6932  14.8948  15.1457  15.3348  15.5902  15.7788  16.0456  16.2053
    16.3979  16.7083  16.7588  16.9111  17.0344  17.4726  17.6813  17.7342
    18.0049  18.3983  18.4359  18.7788  19.1598  19.4160  19.4284  19.6409
    19.7212  20.3266  20.6976  20.9382  21.1812  21.4006  21.9091  21.9996
    22.0833  22.2195  22.6227  22.7033  22.7851  23.0309  23.1669  23.3301
    23.5316  23.8376  23.8814  23.9874  24.6677  24.8811  25.0251  25.1643
    25.3063  25.5034  25.8160  25.9770  26.2425  26.2612  26.5043  26.5871
    26.8913  27.1702  27.4140  27.5978  27.6639  27.9101  28.0854  28.1449
    28.4204  28.8100  28.9511  29.0047  29.1867  29.2245  29.6036  29.8170
    30.0059  30.1747  30.3112  30.4963  30.7658  30.9119  31.0971  31.2511
    31.4865  31.6835  31.7314  31.7866  32.2936  32.3272  32.6232  32.6466
    32.8818  33.0003  33.1640  33.2783  33.5150  33.5629  33.9956  34.3143
    34.3883  34.6317  34.8799  34.9702  35.0758  35.2162  35.3906  35.4757
    35.5693  35.8909  36.2511  36.3595  36.4359  36.7830  36.9524  36.9752
    37.1945  37.3403  37.5085  37.7248  37.8387  37.9514  38.1301  38.5630
    38.5929  38.6649  38.9234  38.9923  39.1587  39.2017  39.4119  39.5789
    39.8512  39.9477  40.2685  40.4389  40.5295  40.6461  40.7906  40.8470
    41.0998  41.2762  41.2871  41.5169  41.7546  41.9345  42.1276  42.1729
    42.4056  42.5777  42.6839  42.7578  43.0156  43.0966  43.2934  43.3748
    43.5166  43.5990  43.9168  43.9872  44.0990  44.4107  44.4536  44.5257

          k =-0.5000-0.2887 0.4082 (  7704 PWs)   bands (ev):

   -97.9285 -81.2740 -58.5121 -58.4494 -58.3937 -47.5629 -47.4647 -47.3025
   -23.9302 -23.4910 -15.6600 -15.4949 -14.7896 -14.5985 -13.0485 -12.7706
   -12.6765 -12.6424 -12.4072 -12.2720  -7.5519  -7.4983  -7.4835  -7.1429
    -7.1100  -7.0299  -4.2390  -3.9793  -3.4440  -3.3093  -3.0074  -2.7815
    -1.9895  -1.9635  -1.5032  -1.1610  -1.0534  -0.6617  -0.5695  -0.2370
    -0.0148   0.0520   0.2191   0.3460   0.6014   0.6942   0.7654   0.8836
     0.9217   1.1384   1.2949   1.4099   1.5771   1.7307   1.8596   1.9965
     2.0634   2.1689   2.3039   2.4194   2.5338   2.8116   3.0366   3.0766
     3.3745   4.0552   4.2519   4.3497   5.9897   6.2322   8.5745   8.6484
     8.8165   8.9191   9.1181   9.2013   9.3648   9.5273   9.6932   9.8606
    10.1266  10.6984  10.9623  11.3514  11.4373  11.8223  12.2092  12.4581
    13.0953  13.3309  13.4157  13.5242  13.8316  13.9057  14.2290  14.4241
    14.6479  15.0382  15.2076  15.4942  15.6076  15.6866  15.9762  16.2343
    16.4337  16.6811  16.8776  16.9995  17.0722  17.4003  17.6180  17.8004
    18.1335  18.3852  18.5669  18.8979  19.0109  19.4644  19.6668  19.8143
    19.8481  20.0738  20.2208  20.6399  21.0966  21.3455  21.6535  21.8181
    21.8336  21.9372  22.4195  22.6846  22.8679  23.2731  23.4022  23.7739
    23.8976  23.9589  24.0345  24.1977  24.3964  24.7215  24.9994  25.0199
    25.2993  25.4251  25.4763  26.0124  26.0953  26.2585  26.4519  26.7143
    26.7717  27.0886  27.2849  27.5072  27.7765  27.8043  28.0741  28.1572
    28.4412  28.7347  28.9530  28.9919  29.1683  29.3555  29.5802  29.7250
    29.9178  30.2493  30.3650  30.5693  30.8617  30.9503  31.1807  31.4088
    31.5381  31.8599  31.9435  32.0798  32.5033  32.6971  32.9084  33.0902
    33.1319  33.2033  33.4460  33.6018  33.7486  33.8778  33.9815  34.0812
    34.4223  34.4643  34.6794  34.7521  34.9546  35.1063  35.4435  35.5617
    35.7709  35.7954  36.0632  36.3780  36.3877  36.5934  36.8110  36.9006
    37.1199  37.2099  37.5135  37.5348  37.7832  37.8925  38.0958  38.2232
    38.2642  38.5445  38.6102  38.8364  38.9294  39.2265  39.3200  39.5065
    39.5877  39.7596  40.0203  40.3031  40.3160  40.4336  40.5512  40.8543
    41.0900  41.3193  41.3943  41.5501  41.6282  41.8940  42.1030  42.3134
    42.3750  42.4993  42.6507  42.7035  42.8627  43.0631  43.2747  43.3056
    43.5756  43.7035  43.7330  44.1347  44.2469  44.2893  44.4381  44.4994

          k =-0.5000-0.2887-0.2041 (  7672 PWs)   bands (ev):

   -97.9285 -81.2740 -58.5121 -58.4494 -58.3937 -47.5629 -47.4647 -47.3025
   -23.9303 -23.4910 -15.6966 -15.4298 -14.8507 -14.5659 -13.0173 -12.8336
   -12.6721 -12.6074 -12.4147 -12.2752  -7.5532  -7.4935  -7.4841  -7.1434
    -7.1068  -7.0314  -4.1262  -3.8766  -3.7517  -3.4043  -2.8853  -2.8611
    -1.8736  -1.7619  -1.3953  -1.2993  -1.1355  -0.9348  -0.3966  -0.2035
    -0.1468   0.0412   0.2567   0.3598   0.6628   0.6966   0.8079   0.9782
     0.9981   1.1217   1.3340   1.4479   1.5659   1.6977   1.7891   1.9195
     2.0731   2.1324   2.3695   2.4393   2.6452   2.6830   3.0000   3.1151
     3.3960   4.0472   4.1611   4.2856   5.9369   6.2966   8.5207   8.6925
     8.7653   8.8430   8.9702   9.2446   9.3035   9.5671   9.7235  10.0559
    10.3177  10.6992  11.0450  11.1740  11.3301  11.5891  12.1924  12.7498
    13.0284  13.1816  13.3826  13.6570  13.9453  13.9866  14.3461  14.6376
    14.8352  14.9796  15.2267  15.5049  15.6167  15.7058  15.9454  16.0941
    16.1545  16.3666  16.8287  17.1711  17.3673  17.5722  17.7127  17.7637
    18.0013  18.1707  18.5008  18.8862  18.9192  19.1884  19.3719  19.5526
    19.9457  20.4366  20.6249  20.9403  21.1443  21.3335  21.5607  21.8028
    21.9326  22.0535  22.2009  22.3803  22.8762  23.0552  23.3094  23.3971
    23.5366  23.7990  23.8822  24.4140  24.6313  25.0027  25.1737  25.2646
    25.3584  25.7421  25.9121  26.2319  26.2820  26.4797  26.5934  26.7928
    27.1251  27.1884  27.2503  27.4121  27.5693  27.8216  28.0937  28.1867
    28.3888  28.6636  28.8495  29.1119  29.1813  29.4964  29.5854  29.7651
    29.8276  29.9380  30.1400  30.3515  30.7555  30.8339  30.9385  31.1963
    31.4417  31.5277  31.7498  32.1844  32.3095  32.5612  32.7036  32.7779
    32.9594  33.0966  33.1336  33.2311  33.5832  33.8927  33.9397  34.2548
    34.4651  34.5327  34.6677  34.8432  34.9319  35.0411  35.3596  35.6205
    35.6767  35.8062  35.9529  36.2607  36.3716  36.5731  36.7303  37.0139
    37.1952  37.2969  37.5386  37.7650  37.8856  37.9568  37.9978  38.2926
    38.5527  38.6409  38.8530  39.0837  39.3135  39.4468  39.5646  39.7518
    40.0699  40.1270  40.3064  40.3756  40.4503  40.5801  40.6761  40.9358
    41.1202  41.3215  41.5902  41.6643  41.6882  41.9069  42.0883  42.2195
    42.3746  42.5370  42.6572  42.6810  42.9568  43.0960  43.3211  43.4449
    43.5374  43.6639  43.8134  43.9820  44.0797  44.2925  44.4087  44.5644

          k = 0.5000-0.2887-0.2041 (  7672 PWs)   bands (ev):

   -97.9285 -81.2740 -58.5121 -58.4493 -58.3937 -47.5629 -47.4647 -47.3025
   -23.9304 -23.4908 -15.7579 -15.3493 -14.7645 -14.6821 -13.0411 -12.7621
   -12.6855 -12.6149 -12.4085 -12.2921  -7.5488  -7.5056  -7.4875  -7.1439
    -7.1173  -7.0266  -4.1821  -3.9537  -3.6009  -3.2359  -3.0365  -2.9113
    -2.0045  -1.7405  -1.4625  -1.0661  -1.0041  -0.7157  -0.5282  -0.3548
    -0.1411   0.0353   0.1638   0.4013   0.4790   0.5959   0.7406   0.8610
     0.9934   1.2684   1.3807   1.4688   1.5503   1.7544   1.8870   1.9739
     2.2270   2.3265   2.3425   2.4585   2.5241   2.7032   2.9199   3.0476
     3.2117   4.1245   4.1947   4.3869   5.9511   6.2968   8.4617   8.5843
     8.7260   8.8927   8.9606   9.1308   9.2997   9.3968   9.9137  10.2295
    10.4422  10.7967  10.8822  11.2914  11.3791  11.4477  12.0216  12.4330
    13.0237  13.1304  13.5200  13.5408  13.7902  14.1365  14.4456  14.5584
    14.8217  15.1245  15.3157  15.4763  15.7846  15.8251  15.9645  16.1660
    16.2897  16.3218  16.7123  17.2169  17.2671  17.3938  17.5645  17.6713
    17.8692  18.5214  18.6082  18.7096  19.0704  19.4254  19.5681  19.6421
    19.9986  20.2817  20.4832  20.7709  20.9073  21.2075  21.5243  21.7925
    22.0310  22.2372  22.4317  22.8746  22.9547  22.9908  23.2892  23.4822
    23.8087  23.8287  23.9680  24.1969  24.4142  24.6534  24.8426  25.1747
    25.4292  25.5999  25.6903  26.1805  26.3599  26.4645  26.7149  26.8950
    27.0567  27.1358  27.2782  27.6382  27.6465  27.8902  28.0314  28.2225
    28.5446  28.5904  28.8117  28.8631  29.1177  29.4532  29.5296  29.6508
    29.8423  30.1602  30.2758  30.4790  30.6738  30.9500  31.0770  31.1864
    31.4517  31.6538  31.8022  32.0988  32.1876  32.3288  32.6434  32.6631
    32.9128  33.0052  33.0487  33.4197  33.4628  33.6500  33.7687  34.0331
    34.2838  34.4130  34.5277  34.7018  34.9281  35.0372  35.3724  35.5247
    35.8086  35.9619  36.0942  36.4572  36.5989  36.7529  36.7780  37.0253
    37.1688  37.2502  37.4148  37.7254  38.0152  38.1161  38.2594  38.3756
    38.4177  38.8922  38.9624  39.0456  39.1305  39.1773  39.3763  39.5167
    39.8310  39.8744  40.2517  40.4635  40.7886  40.8758  40.9641  41.1069
    41.1647  41.3819  41.4972  41.6278  41.7911  41.9110  42.0089  42.1993
    42.2537  42.4943  42.5971  42.8754  42.9928  43.1350  43.3721  43.5686
    43.7062  43.9277  44.0174  44.1799  44.2755  44.4867  44.5008  44.6812

          k = 0.5000-0.2887 0.4082 (  7704 PWs)   bands (ev):

   -97.9285 -81.2740 -58.5122 -58.4494 -58.3937 -47.5629 -47.4647 -47.3025
   -23.9304 -23.4908 -15.6955 -15.3476 -15.0463 -14.4559 -13.0393 -12.8074
   -12.6852 -12.6013 -12.4205 -12.2539  -7.5439  -7.5010  -7.4880  -7.1451
    -7.1172  -7.0264  -4.1114  -4.0202  -3.6256  -3.3610  -3.0368  -2.6924
    -2.1436  -1.6691  -1.3448  -1.2986  -0.9263  -0.8264  -0.4562  -0.2815
    -0.1245   0.0850   0.2441   0.3304   0.4525   0.5492   0.6314   0.8028
     1.1281   1.2397   1.3742   1.4225   1.4930   1.7625   1.8359   2.0674
     2.1264   2.3306   2.3724   2.4583   2.5265   2.7089   2.9969   3.1141
     3.1714   4.1591   4.2266   4.3797   5.9364   6.2760   8.5337   8.7176
     8.8050   8.9348   9.1632   9.1920   9.2582   9.5625   9.7095   9.9580
    10.3011  10.6312  10.9543  11.0628  11.4726  11.9027  12.3016  12.3665
    12.8528  13.3128  13.5499  13.6380  13.7635  14.1342  14.2372  14.5221
    14.6750  14.7623  15.0518  15.4331  15.5384  15.7786  15.8965  16.0104
    16.3257  16.6967  16.8490  17.0890  17.1451  17.2672  17.4448  17.7929
    18.1462  18.2128  18.5259  18.8455  18.9351  19.3242  19.6313  19.9591
    20.1070  20.2052  20.4733  20.7557  21.1476  21.4465  21.5190  21.6947
    22.1131  22.1873  22.4848  22.7457  22.8786  22.9535  23.3059  23.6383
    23.8265  23.9186  24.3690  24.4122  24.6745  24.8870  25.2401  25.3784
    25.4096  25.7140  25.8810  26.0202  26.3125  26.3708  26.6505  26.8552
    27.1233  27.2257  27.3770  27.4557  27.6264  27.8916  27.9448  28.1035
    28.4668  28.5234  28.7066  28.8288  28.9680  29.2146  29.4595  29.6327
    29.6712  29.9509  30.0116  30.6275  30.6957  30.7340  30.9847  31.0920
    31.2580  31.3972  31.5226  31.8781  32.0036  32.3203  32.5073  32.7834
    32.8980  32.9657  33.1532  33.2890  33.6007  33.7847  33.8169  34.0691
    34.2192  34.4933  34.5784  34.7650  34.8748  35.1869  35.4646  35.7032
    35.8740  36.1085  36.2812  36.4325  36.4768  36.7096  36.8057  37.0591
    37.1495  37.4714  37.7186  37.9232  38.0170  38.1020  38.2582  38.4215
    38.5607  38.6639  38.9498  39.1223  39.2956  39.4893  39.5527  39.6578
    39.8376  39.9974  40.1712  40.2100  40.4008  40.6717  40.7896  41.0289
    41.1113  41.3145  41.5317  41.7302  41.8034  41.9747  42.0006  42.2036
    42.3365  42.3712  42.6117  42.7361  43.0006  43.1486  43.3148  43.5444
    43.6308  43.6848  43.9000  44.0857  44.1492  44.2526  44.4033  44.7703

     the Fermi energy is     5.1695 ev

!    total energy              =   -1037.68597499 Ry
     Harris-Foulkes estimate   =   -1037.68597488 Ry
     estimated scf accuracy    <          1.2E-09 Ry

     The total energy is the sum of the following terms:

     one-electron contribution =    -716.93233514 Ry
     hartree contribution      =     414.21053168 Ry
     xc contribution           =    -173.03896511 Ry
     ewald contribution        =    -562.03601081 Ry
     Hubbard energy            =       0.11080814 Ry
     smearing contrib. (-TS)   =      -0.00000375 Ry

     total magnetization       =     2.00 Bohr mag/cell
     absolute magnetization    =     2.11 Bohr mag/cell

     convergence has been achieved in  20 iterations

     Forces acting on atoms (Ry/au):

     atom    1 type  1   force =    -0.00706645    0.00304759   -0.00018031
     atom    2 type  2   force =     0.00340214   -0.00181613    0.00040099
     atom    3 type  3   force =    -0.00316250   -0.00228445    0.01021629
     atom    4 type  4   force =    -0.00229991   -0.00807502   -0.00019388
     atom    5 type  4   force =     0.00808223    0.00221396   -0.00181477
     atom    6 type  4   force =    -0.01604227    0.00742997   -0.00206997
     atom    7 type  4   force =     0.01074962   -0.00526749    0.00770764
     atom    8 type  4   force =    -0.00228970   -0.00600720   -0.00391323
     atom    9 type  4   force =     0.00262364    0.02480234    0.00616559
     atom   10 type  3   force =    -0.00988099   -0.00067663    0.00621787
     atom   11 type  3   force =     0.00199629   -0.00789943    0.00802193
     atom   12 type  3   force =    -0.00782235    0.00147357   -0.00716003
     atom   13 type  3   force =    -0.00349238    0.00830923    0.00814985
     atom   14 type  3   force =     0.00021174   -0.00395815   -0.01144448
     atom   15 type  5   force =     0.00431874   -0.00248138    0.00173756
     atom   16 type  5   force =     0.00028185    0.00074302   -0.01137420
     atom   17 type  6   force =    -0.00083958   -0.01908772   -0.01140439
     atom   18 type  6   force =     0.00813780   -0.02303358   -0.01126609
     atom   19 type  6   force =     0.01470246    0.00402526   -0.00785754
     atom   20 type  6   force =     0.00539097   -0.01219859    0.00464074
     atom   21 type  7   force =    -0.00166010    0.00650970    0.00311004
     atom   22 type  7   force =     0.00683233    0.00598213   -0.00540552
     atom   23 type  7   force =     0.00875236    0.00863797    0.00474184
     atom   24 type  7   force =    -0.00899523    0.01568759    0.00201704
     atom   25 type  7   force =    -0.00240265    0.00426533   -0.00102404
     atom   26 type  7   force =    -0.00619665   -0.00902446    0.00738380
     atom   27 type  7   force =    -0.00689761    0.01152887    0.00561484
     atom   28 type  7   force =     0.00356621   -0.00284631   -0.00101758

     Total force =     0.072286     Total SCF correction =     0.000057


     entering subroutine stress ...

          total   stress  (Ry/bohr**3)                   (kbar)     P=   91.55
   0.00072805   0.00001274  -0.00013041        107.10      1.87    -19.18
   0.00001274   0.00074924  -0.00003227          1.87    110.22     -4.75
  -0.00013041  -0.00003227   0.00038983        -19.18     -4.75     57.35


     number of scf cycles    =  50
     number of bfgs steps    =  47

     energy   old            =   -1037.6816510311 Ry
     energy   new            =   -1037.6859749912 Ry

     CASE: energy  _new < energy  _old

     new trust radius        =       0.1231178370 bohr
     new conv_thr            =       0.0000000025 Ry


ATOMIC_POSITIONS (angstrom)
Fe       0.044049173   0.171793922  -0.095669933
Ni       7.309078626   4.482964021   2.799855668
C        9.468842283   5.526291254   0.741503856
N        8.558140750   5.031985385   1.297255057
N        6.423828865   2.603094728   4.602781611
N        8.846357562   3.820718368   4.051831359
N        5.810507086   5.384393279   1.766573822
N        7.656248722   6.274822757   3.732750861
N        6.618360476   2.552927195   1.762284774
C        5.332332447   2.694347521   5.031934160
C        9.670771706   3.236164266   4.652498092
C        4.912245546   5.771152502   1.117609648
C        7.470857974   7.106227258   4.540493801
C        6.906113389   1.632701252   1.086556346
K        4.125991723   1.365547048   1.011571259
K       10.097377957   6.097383425   5.306593742
O        4.035148188   3.488176211   2.618315178
O       11.901946631   7.403828641   3.462443610
O        9.282754242   2.597311585   1.260206858
O        5.137645069   5.080990020   4.501431397
H        4.429037402   3.754670896   3.490403871
H        4.298158749   4.244157955   2.054685687
H        1.883154281   1.457289922   3.920917501
H       11.155084347   7.946615594   3.851954629
H        9.850715186   3.125179752   1.894048128
H        8.746413980   2.048314729   1.889769880
H        5.115162098   5.947775247   4.019695901
H        5.367787541   5.156024267   5.476126237



     Writing output data file K_f4axFeO0_1_5_9ang0.save
     NEW-OLD atomic charge density approx. for the potential

     Check: negative/imaginary core charge=   -0.000003    0.000000
 Atomic wfc used for LDA+U Projector are NOT orthogonalized

     Writing output data file K_f4axFeO0_1_5_9ang0.save

     init_run     :      7.88s CPU      7.53s WALL (       1 calls)
     electrons    :  12895.58s CPU  10885.73s WALL (      50 calls)
     update_pot   :    276.19s CPU    271.94s WALL (      50 calls)
     forces       :    291.77s CPU    281.49s WALL (      50 calls)
     stress       :    737.85s CPU    663.36s WALL (      50 calls)

     Called by init_run:
     wfcinit      :      1.27s CPU      1.03s WALL (       1 calls)
     potinit      :      2.42s CPU      2.29s WALL (       1 calls)

     Called by electrons:
     c_bands      :   8896.01s CPU   7742.44s WALL (    1377 calls)
     sum_band     :   2074.35s CPU   1532.99s WALL (    1377 calls)
     v_of_rho     :   1223.85s CPU    994.22s WALL (    1428 calls)
     newd         :    680.55s CPU    582.75s WALL (    1428 calls)
     mix_rho      :     27.69s CPU     21.45s WALL (    1377 calls)

     Called by c_bands:
     init_us_2    :      9.60s CPU      8.79s WALL (    6812 calls)
     ccgdiagg     :   7160.89s CPU   6343.26s WALL (    2845 calls)
     wfcrot       :   1564.64s CPU   1225.61s WALL (    2747 calls)

     Called by sum_band:
     sum_band:bec :      4.22s CPU      3.20s WALL (    2754 calls)
     addusdens    :   1427.62s CPU   1047.25s WALL (    1377 calls)

     Called by *cgdiagg:
     h_psi        :   5939.00s CPU   4715.38s WALL ( 1858585 calls)
     s_psi        :    859.13s CPU    878.81s WALL ( 3715525 calls)
     cdiaghg      :    162.43s CPU    165.22s WALL (    2747 calls)

     Called by h_psi:
     add_vuspsi   :    981.23s CPU   1005.86s WALL ( 1858585 calls)
     vhpsi        :    131.76s CPU    134.72s WALL ( 1858585 calls)
     h_1psi       :   5196.17s CPU   4326.15s WALL ( 1855838 calls)

     General routines
     calbec       :   1421.27s CPU   1455.09s WALL ( 5682818 calls)
     fft          :    626.34s CPU    489.30s WALL (  124562 calls)
     ffts         :      6.43s CPU      4.92s WALL (    5610 calls)
     fftw         :   3797.15s CPU   2462.34s WALL ( 5823164 calls)
     interpolate  :     28.44s CPU     20.43s WALL (    5610 calls)
     davcio       :      0.00s CPU      0.01s WALL (       4 calls)

     Parallel routines
     fft_scatter  :   1209.42s CPU   1234.19s WALL ( 5953336 calls)

     Hubbard U routines
     new_ns       :      7.99s CPU      8.00s WALL (    1377 calls)
     vhpsi        :    131.76s CPU    134.72s WALL ( 1858585 calls)
     force_hub    :     19.89s CPU     19.97s WALL (      50 calls)
     stres_hub    :     98.01s CPU     96.75s WALL (      50 calls)

     PWSCF        :     3h57m CPU        3h23m WALL


   This run was terminated on:   0:40:26  16Dec2019            

=------------------------------------------------------------------------------=
   JOB DONE.
=------------------------------------------------------------------------------=
Application 83135325 exit codes: 3
Application 83135325 resources: utime ~1803020s, stime ~92965s, Rss ~149344, inblocks ~12306194, outblocks ~7124119
